M 1.00000 0 (-110.00, 350.00, 0.00), (70.00, 50.00), 0.00
M 1.00000 1 (-10.00, 350.00, 0.00), (20.00, 30.00), 0.00
M 1.00000 2 (50.00, 450.00, 0.00), (200.00, 450.00), 85.00
M 1.00000 3 (-120.00, 100.00, 0.00), (40.00, 100.00), 0.00
M 1.00000 4 (90.00, 100.00, 0.00), (30.00, 45.00), 0.00
M 1.00000 5 (-200.00, 200.00, 0.00), (80.00, 200.00), 0.00
M 1.00000 6 (90.00, 200.00, 0.00), (50.00, 350.00), 0.00
M 1.00000 7 (400.00, 100.00, 0.00), (300.00, 145.00), 0.00
M 1.00000 8 (-410.00, 320.00, 0.00), (110.00, 230.00), 0.00
M 1.00000 9 (280.00, -140.00, 0.00), (250.00, 50.00), 0.00
s 1.000000000 _0_ AGT  --- 0 tcp 1000 [0 0 0 0] ------- [0:0 5:0 32 0] [0 0] 0 0
r 1.000000000 _0_ RTR  --- 0 tcp 1000 [0 0 0 0] ------- [0:0 5:0 32 0] [0 0] 0 0
s 1.000000000 _2_ AGT  --- 1 tcp 1000 [0 0 0 0] ------- [2:0 6:0 32 0] [0 0] 0 0
r 1.000000000 _2_ RTR  --- 1 tcp 1000 [0 0 0 0] ------- [2:0 6:0 32 0] [0 0] 0 0
s 1.000000000 _0_ RTR  --- 0 AODV 48 [0 0 0 0] ------- [0:255 -1:255 30 0] [0x2 1 1 [5 0] [0 4]] (REQUEST)
s 1.000000000 _2_ RTR  --- 0 AODV 48 [0 0 0 0] ------- [2:255 -1:255 30 0] [0x2 1 1 [6 0] [2 4]] (REQUEST)
s 1.000075000 _2_ MAC  --- 0 AODV 106 [0 ffffffff 2 800] ------- [2:255 -1:255 30 0] [0x2 1 1 [6 0] [2 4]] (REQUEST)
r 1.000923389 _1_ MAC  --- 0 AODV 48 [0 ffffffff 2 800] ------- [2:255 -1:255 30 0] [0x2 1 1 [6 0] [2 4]] (REQUEST)
r 1.000923629 _0_ MAC  --- 0 AODV 48 [0 ffffffff 2 800] ------- [2:255 -1:255 30 0] [0x2 1 1 [6 0] [2 4]] (REQUEST)
r 1.000948389 _1_ RTR  --- 0 AODV 48 [0 ffffffff 2 800] ------- [2:255 -1:255 30 0] [0x2 1 1 [6 0] [2 4]] (REQUEST)
r 1.000948629 _0_ RTR  --- 0 AODV 48 [0 ffffffff 2 800] ------- [2:255 -1:255 30 0] [0x2 1 1 [6 0] [2 4]] (REQUEST)
s 1.001293629 _0_ MAC  --- 0 AODV 106 [0 ffffffff 0 800] ------- [0:255 -1:255 30 0] [0x2 1 1 [5 0] [0 4]] (REQUEST)
r 1.002141962 _1_ MAC  --- 0 AODV 48 [0 ffffffff 0 800] ------- [0:255 -1:255 30 0] [0x2 1 1 [5 0] [0 4]] (REQUEST)
r 1.002142212 _5_ MAC  --- 0 AODV 48 [0 ffffffff 0 800] ------- [0:255 -1:255 30 0] [0x2 1 1 [5 0] [0 4]] (REQUEST)
r 1.002142258 _2_ MAC  --- 0 AODV 48 [0 ffffffff 0 800] ------- [0:255 -1:255 30 0] [0x2 1 1 [5 0] [0 4]] (REQUEST)
r 1.002142462 _6_ MAC  --- 0 AODV 48 [0 ffffffff 0 800] ------- [0:255 -1:255 30 0] [0x2 1 1 [5 0] [0 4]] (REQUEST)
r 1.002166962 _1_ RTR  --- 0 AODV 48 [0 ffffffff 0 800] ------- [0:255 -1:255 30 0] [0x2 1 1 [5 0] [0 4]] (REQUEST)
r 1.002167212 _5_ RTR  --- 0 AODV 48 [0 ffffffff 0 800] ------- [0:255 -1:255 30 0] [0x2 1 1 [5 0] [0 4]] (REQUEST)
s 1.002167212 _5_ RTR  --- 0 AODV 44 [0 0 0 0] ------- [5:255 0:255 30 0] [0x4 1 [5 4] 10.000000] (REPLY)
r 1.002167258 _2_ RTR  --- 0 AODV 48 [0 ffffffff 0 800] ------- [0:255 -1:255 30 0] [0x2 1 1 [5 0] [0 4]] (REQUEST)
r 1.002167462 _6_ RTR  --- 0 AODV 48 [0 ffffffff 0 800] ------- [0:255 -1:255 30 0] [0x2 1 1 [5 0] [0 4]] (REQUEST)
s 1.002762212 _5_ MAC  --- 0 ARP 86 [0 ffffffff 5 806] ------- [REQUEST 5/5 0/0]
s 1.003294646 _0_ RTR  --- 0 AODV 48 [0 ffffffff 2 800] ------- [0:255 -1:255 29 0] [0x2 2 1 [6 0] [2 4]] (REQUEST)
r 1.003450639 _3_ MAC  --- 0 ARP 28 [0 ffffffff 5 806] ------- [REQUEST 5/5 0/0]
r 1.003450795 _0_ MAC  --- 0 ARP 28 [0 ffffffff 5 806] ------- [REQUEST 5/5 0/0]
r 1.003451018 _8_ MAC  --- 0 ARP 28 [0 ffffffff 5 806] ------- [REQUEST 5/5 0/0]
r 1.003451019 _1_ MAC  --- 0 ARP 28 [0 ffffffff 5 806] ------- [REQUEST 5/5 0/0]
s 1.003660795 _0_ MAC  --- 0 AODV 106 [0 ffffffff 0 800] ------- [0:255 -1:255 29 0] [0x2 2 1 [6 0] [2 4]] (REQUEST)
s 1.003808916 _6_ RTR  --- 0 AODV 48 [0 ffffffff 0 800] ------- [6:255 -1:255 29 0] [0x2 2 1 [5 0] [0 4]] (REQUEST)
r 1.004509128 _1_ MAC  --- 0 AODV 48 [0 ffffffff 0 800] ------- [0:255 -1:255 29 0] [0x2 2 1 [6 0] [2 4]] (REQUEST)
r 1.004509378 _5_ MAC  --- 0 AODV 48 [0 ffffffff 0 800] ------- [0:255 -1:255 29 0] [0x2 2 1 [6 0] [2 4]] (REQUEST)
r 1.004509425 _2_ MAC  --- 0 AODV 48 [0 ffffffff 0 800] ------- [0:255 -1:255 29 0] [0x2 2 1 [6 0] [2 4]] (REQUEST)
r 1.004509628 _6_ MAC  --- 0 AODV 48 [0 ffffffff 0 800] ------- [0:255 -1:255 29 0] [0x2 2 1 [6 0] [2 4]] (REQUEST)
r 1.004534128 _1_ RTR  --- 0 AODV 48 [0 ffffffff 0 800] ------- [0:255 -1:255 29 0] [0x2 2 1 [6 0] [2 4]] (REQUEST)
r 1.004534378 _5_ RTR  --- 0 AODV 48 [0 ffffffff 0 800] ------- [0:255 -1:255 29 0] [0x2 2 1 [6 0] [2 4]] (REQUEST)
r 1.004534425 _2_ RTR  --- 0 AODV 48 [0 ffffffff 0 800] ------- [0:255 -1:255 29 0] [0x2 2 1 [6 0] [2 4]] (REQUEST)
r 1.004534628 _6_ RTR  --- 0 AODV 48 [0 ffffffff 0 800] ------- [0:255 -1:255 29 0] [0x2 2 1 [6 0] [2 4]] (REQUEST)
s 1.004534628 _6_ RTR  --- 0 AODV 44 [0 0 0 0] ------- [6:255 2:255 30 0] [0x4 1 [6 4] 10.000000] (REPLY)
s 1.004718795 _0_ MAC  --- 0 RTS 44 [52e 5 0 0] 
r 1.005071378 _5_ MAC  --- 0 RTS 44 [52e 5 0 0] 
s 1.005081378 _5_ MAC  --- 0 CTS 38 [3f4 0 0 0] 
s 1.005257753 _1_ RTR  --- 0 AODV 48 [0 ffffffff 0 800] ------- [1:255 -1:255 29 0] [0x2 2 1 [5 0] [0 4]] (REQUEST)
r 1.005385961 _0_ MAC  --- 0 CTS 38 [3f4 0 0 0] 
s 1.005395961 _0_ MAC  --- 0 ARP 86 [13a 5 0 806] ------- [REPLY 0/0 5/5]
r 1.006084544 _5_ MAC  --- 0 ARP 28 [13a 5 0 806] ------- [REPLY 0/0 5/5]
s 1.006094544 _5_ MAC  --- 0 ACK 38 [0 0 0 0] 
s 1.006282431 _5_ RTR  --- 0 AODV 48 [0 ffffffff 0 800] ------- [5:255 -1:255 28 0] [0x2 3 1 [6 0] [2 4]] (REQUEST)
r 1.006399128 _0_ MAC  --- 0 ACK 38 [0 0 0 0] 
s 1.006508544 _5_ MAC  --- 0 RTS 44 [5ae 0 5 0] 
r 1.006861128 _0_ MAC  --- 0 RTS 44 [5ae 0 5 0] 
s 1.006871128 _0_ MAC  --- 0 CTS 38 [474 5 0 0] 
r 1.007175711 _5_ MAC  --- 0 CTS 38 [474 5 0 0] 
s 1.007185711 _5_ MAC  --- 0 AODV 102 [13a 0 5 800] ------- [5:255 0:255 30 0] [0x4 1 [5 4] 10.000000] (REPLY)
r 1.008002294 _0_ MAC  --- 0 AODV 44 [13a 0 5 800] ------- [5:255 0:255 30 0] [0x4 1 [5 4] 10.000000] (REPLY)
s 1.008012294 _0_ MAC  --- 0 ACK 38 [0 5 0 0] 
r 1.008027294 _0_ RTR  --- 0 AODV 44 [13a 0 5 800] ------- [5:255 0:255 30 0] [0x4 1 [5 4] 10.000000] (REPLY)
s 1.008027294 _0_ RTR  --- 0 tcp 1000 [0 0 0 0] ------- [0:0 5:0 30 5] [0 0] 0 0
r 1.008316877 _5_ MAC  --- 0 ACK 38 [0 5 0 0] 
s 1.008516677 _6_ MAC  --- 0 AODV 106 [0 ffffffff 6 800] ------- [6:255 -1:255 29 0] [0x2 2 1 [5 0] [0 4]] (REQUEST)
s 1.009113149 _1_ RTR  --- 0 AODV 48 [0 ffffffff 2 800] ------- [1:255 -1:255 29 0] [0x2 2 1 [6 0] [2 4]] (REQUEST)
r 1.009365011 _4_ MAC  --- 0 AODV 48 [0 ffffffff 6 800] ------- [6:255 -1:255 29 0] [0x2 2 1 [5 0] [0 4]] (REQUEST)
r 1.009365278 _1_ MAC  --- 0 AODV 48 [0 ffffffff 6 800] ------- [6:255 -1:255 29 0] [0x2 2 1 [5 0] [0 4]] (REQUEST)
r 1.009365453 _3_ MAC  --- 0 AODV 48 [0 ffffffff 6 800] ------- [6:255 -1:255 29 0] [0x2 2 1 [5 0] [0 4]] (REQUEST)
r 1.009365511 _0_ MAC  --- 0 AODV 48 [0 ffffffff 6 800] ------- [6:255 -1:255 29 0] [0x2 2 1 [5 0] [0 4]] (REQUEST)
r 1.009390011 _4_ RTR  --- 0 AODV 48 [0 ffffffff 6 800] ------- [6:255 -1:255 29 0] [0x2 2 1 [5 0] [0 4]] (REQUEST)
r 1.009390278 _1_ RTR  --- 0 AODV 48 [0 ffffffff 6 800] ------- [6:255 -1:255 29 0] [0x2 2 1 [5 0] [0 4]] (REQUEST)
r 1.009390453 _3_ RTR  --- 0 AODV 48 [0 ffffffff 6 800] ------- [6:255 -1:255 29 0] [0x2 2 1 [5 0] [0 4]] (REQUEST)
r 1.009390511 _0_ RTR  --- 0 AODV 48 [0 ffffffff 6 800] ------- [6:255 -1:255 29 0] [0x2 2 1 [5 0] [0 4]] (REQUEST)
s 1.009555511 _0_ MAC  --- 0 RTS 44 [238e 5 0 0] 
r 1.009908094 _5_ MAC  --- 0 RTS 44 [238e 5 0 0] 
s 1.009918094 _5_ MAC  --- 0 CTS 38 [2254 0 0 0] 
r 1.010222677 _0_ MAC  --- 0 CTS 38 [2254 0 0 0] 
s 1.010232677 _0_ MAC  --- 0 tcp 1058 [13a 5 0 800] ------- [0:0 5:0 30 5] [0 0] 0 0
s 1.010530494 _2_ RTR  --- 0 AODV 48 [0 ffffffff 0 800] ------- [2:255 -1:255 29 0] [0x2 2 1 [5 0] [0 4]] (REQUEST)
s 1.013476867 _4_ RTR  --- 0 AODV 48 [0 ffffffff 6 800] ------- [4:255 -1:255 28 0] [0x2 3 1 [5 0] [0 4]] (REQUEST)
s 1.014576941 _3_ RTR  --- 0 AODV 48 [0 ffffffff 6 800] ------- [3:255 -1:255 28 0] [0x2 3 1 [5 0] [0 4]] (REQUEST)
r 1.018697260 _5_ MAC  --- 0 tcp 1000 [13a 5 0 800] ------- [0:0 5:0 30 5] [0 0] 1 0
s 1.018707260 _5_ MAC  --- 0 ACK 38 [0 0 0 0] 
r 1.018722260 _5_ AGT  --- 0 tcp 1000 [13a 5 0 800] ------- [0:0 5:0 30 5] [0 0] 1 0
s 1.018722260 _5_ AGT  --- 2 ack 40 [0 0 0 0] ------- [5:0 0:0 32 0] [0 0] 0 0
r 1.018722260 _5_ RTR  --- 2 ack 40 [0 0 0 0] ------- [5:0 0:0 32 0] [0 0] 0 0
s 1.018722260 _5_ RTR  --- 2 ack 40 [0 0 0 0] ------- [5:0 0:0 30 0] [0 0] 0 0
r 1.019011843 _0_ MAC  --- 0 ACK 38 [0 0 0 0] 
s 1.019082067 _1_ MAC  --- 0 AODV 106 [0 ffffffff 1 800] ------- [1:255 -1:255 29 0] [0x2 2 1 [5 0] [0 4]] (REQUEST)
r 1.019930400 _0_ MAC  --- 0 AODV 48 [0 ffffffff 1 800] ------- [1:255 -1:255 29 0] [0x2 2 1 [5 0] [0 4]] (REQUEST)
r 1.019930458 _2_ MAC  --- 0 AODV 48 [0 ffffffff 1 800] ------- [1:255 -1:255 29 0] [0x2 2 1 [5 0] [0 4]] (REQUEST)
r 1.019930668 _6_ MAC  --- 0 AODV 48 [0 ffffffff 1 800] ------- [1:255 -1:255 29 0] [0x2 2 1 [5 0] [0 4]] (REQUEST)
r 1.019930874 _5_ MAC  --- 0 AODV 48 [0 ffffffff 1 800] ------- [1:255 -1:255 29 0] [0x2 2 1 [5 0] [0 4]] (REQUEST)
r 1.019955400 _0_ RTR  --- 0 AODV 48 [0 ffffffff 1 800] ------- [1:255 -1:255 29 0] [0x2 2 1 [5 0] [0 4]] (REQUEST)
r 1.019955458 _2_ RTR  --- 0 AODV 48 [0 ffffffff 1 800] ------- [1:255 -1:255 29 0] [0x2 2 1 [5 0] [0 4]] (REQUEST)
r 1.019955668 _6_ RTR  --- 0 AODV 48 [0 ffffffff 1 800] ------- [1:255 -1:255 29 0] [0x2 2 1 [5 0] [0 4]] (REQUEST)
r 1.019955874 _5_ RTR  --- 0 AODV 48 [0 ffffffff 1 800] ------- [1:255 -1:255 29 0] [0x2 2 1 [5 0] [0 4]] (REQUEST)
s 1.020020874 _5_ MAC  --- 0 AODV 106 [0 ffffffff 5 800] ------- [5:255 -1:255 28 0] [0x2 3 1 [6 0] [2 4]] (REQUEST)
r 1.020869301 _3_ MAC  --- 0 AODV 48 [0 ffffffff 5 800] ------- [5:255 -1:255 28 0] [0x2 3 1 [6 0] [2 4]] (REQUEST)
r 1.020869457 _0_ MAC  --- 0 AODV 48 [0 ffffffff 5 800] ------- [5:255 -1:255 28 0] [0x2 3 1 [6 0] [2 4]] (REQUEST)
r 1.020869680 _8_ MAC  --- 0 AODV 48 [0 ffffffff 5 800] ------- [5:255 -1:255 28 0] [0x2 3 1 [6 0] [2 4]] (REQUEST)
r 1.020869681 _1_ MAC  --- 0 AODV 48 [0 ffffffff 5 800] ------- [5:255 -1:255 28 0] [0x2 3 1 [6 0] [2 4]] (REQUEST)
r 1.020894301 _3_ RTR  --- 0 AODV 48 [0 ffffffff 5 800] ------- [5:255 -1:255 28 0] [0x2 3 1 [6 0] [2 4]] (REQUEST)
r 1.020894457 _0_ RTR  --- 0 AODV 48 [0 ffffffff 5 800] ------- [5:255 -1:255 28 0] [0x2 3 1 [6 0] [2 4]] (REQUEST)
r 1.020894680 _8_ RTR  --- 0 AODV 48 [0 ffffffff 5 800] ------- [5:255 -1:255 28 0] [0x2 3 1 [6 0] [2 4]] (REQUEST)
r 1.020894681 _1_ RTR  --- 0 AODV 48 [0 ffffffff 5 800] ------- [5:255 -1:255 28 0] [0x2 3 1 [6 0] [2 4]] (REQUEST)
s 1.021278874 _5_ MAC  --- 0 RTS 44 [58e 0 5 0] 
r 1.021631457 _0_ MAC  --- 0 RTS 44 [58e 0 5 0] 
s 1.021641457 _0_ MAC  --- 0 CTS 38 [454 5 0 0] 
r 1.021946040 _5_ MAC  --- 0 CTS 38 [454 5 0 0] 
s 1.021956040 _5_ MAC  --- 2 ack 98 [13a 0 5 800] ------- [5:0 0:0 30 0] [0 0] 0 0
r 1.022740623 _0_ MAC  --- 2 ack 40 [13a 0 5 800] ------- [5:0 0:0 30 0] [0 0] 1 0
s 1.022750623 _0_ MAC  --- 0 ACK 38 [0 5 0 0] 
r 1.022765623 _0_ AGT  --- 2 ack 40 [13a 0 5 800] ------- [5:0 0:0 30 0] [0 0] 1 0
s 1.022765623 _0_ AGT  --- 3 tcp 1000 [0 0 0 0] ------- [0:0 5:0 32 0] [1 0] 0 0
r 1.022765623 _0_ RTR  --- 3 tcp 1000 [0 0 0 0] ------- [0:0 5:0 32 0] [1 0] 0 0
s 1.022765623 _0_ RTR  --- 3 tcp 1000 [0 0 0 0] ------- [0:0 5:0 30 5] [1 0] 0 0
r 1.023055206 _5_ MAC  --- 0 ACK 38 [0 5 0 0] 
s 1.023195007 _6_ MAC  --- 0 ARP 86 [0 ffffffff 6 806] ------- [REQUEST 6/6 0/0]
r 1.023883340 _4_ MAC  --- 0 ARP 28 [0 ffffffff 6 806] ------- [REQUEST 6/6 0/0]
r 1.023883608 _1_ MAC  --- 0 ARP 28 [0 ffffffff 6 806] ------- [REQUEST 6/6 0/0]
r 1.023883782 _3_ MAC  --- 0 ARP 28 [0 ffffffff 6 806] ------- [REQUEST 6/6 0/0]
r 1.023883840 _0_ MAC  --- 0 ARP 28 [0 ffffffff 6 806] ------- [REQUEST 6/6 0/0]
s 1.024013608 _1_ MAC  --- 0 AODV 106 [0 ffffffff 1 800] ------- [1:255 -1:255 29 0] [0x2 2 1 [6 0] [2 4]] (REQUEST)
r 1.024861941 _0_ MAC  --- 0 AODV 48 [0 ffffffff 1 800] ------- [1:255 -1:255 29 0] [0x2 2 1 [6 0] [2 4]] (REQUEST)
r 1.024862000 _2_ MAC  --- 0 AODV 48 [0 ffffffff 1 800] ------- [1:255 -1:255 29 0] [0x2 2 1 [6 0] [2 4]] (REQUEST)
r 1.024862208 _6_ MAC  --- 0 AODV 48 [0 ffffffff 1 800] ------- [1:255 -1:255 29 0] [0x2 2 1 [6 0] [2 4]] (REQUEST)
r 1.024862414 _5_ MAC  --- 0 AODV 48 [0 ffffffff 1 800] ------- [1:255 -1:255 29 0] [0x2 2 1 [6 0] [2 4]] (REQUEST)
r 1.024886941 _0_ RTR  --- 0 AODV 48 [0 ffffffff 1 800] ------- [1:255 -1:255 29 0] [0x2 2 1 [6 0] [2 4]] (REQUEST)
r 1.024887000 _2_ RTR  --- 0 AODV 48 [0 ffffffff 1 800] ------- [1:255 -1:255 29 0] [0x2 2 1 [6 0] [2 4]] (REQUEST)
r 1.024887208 _6_ RTR  --- 0 AODV 48 [0 ffffffff 1 800] ------- [1:255 -1:255 29 0] [0x2 2 1 [6 0] [2 4]] (REQUEST)
r 1.024887414 _5_ RTR  --- 0 AODV 48 [0 ffffffff 1 800] ------- [1:255 -1:255 29 0] [0x2 2 1 [6 0] [2 4]] (REQUEST)
s 1.025111941 _0_ MAC  --- 0 RTS 44 [238e 5 0 0] 
r 1.025464524 _5_ MAC  --- 0 RTS 44 [238e 5 0 0] 
s 1.025474524 _5_ MAC  --- 0 CTS 38 [2254 0 0 0] 
r 1.025779107 _0_ MAC  --- 0 CTS 38 [2254 0 0 0] 
s 1.025789107 _0_ MAC  --- 3 tcp 1058 [13a 5 0 800] ------- [0:0 5:0 30 5] [1 0] 0 0
s 1.027668169 _8_ RTR  --- 0 AODV 48 [0 ffffffff 5 800] ------- [8:255 -1:255 27 0] [0x2 4 1 [6 0] [2 4]] (REQUEST)
s 1.029405366 _3_ RTR  --- 0 AODV 48 [0 ffffffff 5 800] ------- [3:255 -1:255 27 0] [0x2 4 1 [6 0] [2 4]] (REQUEST)
r 1.034253690 _5_ MAC  --- 3 tcp 1000 [13a 5 0 800] ------- [0:0 5:0 30 5] [1 0] 1 0
s 1.034263690 _5_ MAC  --- 0 ACK 38 [0 0 0 0] 
r 1.034278690 _5_ AGT  --- 3 tcp 1000 [13a 5 0 800] ------- [0:0 5:0 30 5] [1 0] 1 0
s 1.034278690 _5_ AGT  --- 4 ack 40 [0 0 0 0] ------- [5:0 0:0 32 0] [1 0] 0 0
r 1.034278690 _5_ RTR  --- 4 ack 40 [0 0 0 0] ------- [5:0 0:0 32 0] [1 0] 0 0
s 1.034278690 _5_ RTR  --- 4 ack 40 [0 0 0 0] ------- [5:0 0:0 30 0] [1 0] 0 0
r 1.034568273 _0_ MAC  --- 0 ACK 38 [0 0 0 0] 
s 1.034717690 _5_ MAC  --- 0 RTS 44 [58e 0 5 0] 
r 1.035070273 _0_ MAC  --- 0 RTS 44 [58e 0 5 0] 
s 1.035080273 _0_ MAC  --- 0 CTS 38 [454 5 0 0] 
r 1.035384856 _5_ MAC  --- 0 CTS 38 [454 5 0 0] 
s 1.035394856 _5_ MAC  --- 4 ack 98 [13a 0 5 800] ------- [5:0 0:0 30 0] [1 0] 0 0
r 1.036179439 _0_ MAC  --- 4 ack 40 [13a 0 5 800] ------- [5:0 0:0 30 0] [1 0] 1 0
s 1.036189439 _0_ MAC  --- 0 ACK 38 [0 5 0 0] 
r 1.036204439 _0_ AGT  --- 4 ack 40 [13a 0 5 800] ------- [5:0 0:0 30 0] [1 0] 1 0
s 1.036204439 _0_ AGT  --- 5 tcp 1000 [0 0 0 0] ------- [0:0 5:0 32 0] [2 0] 0 0
r 1.036204439 _0_ RTR  --- 5 tcp 1000 [0 0 0 0] ------- [0:0 5:0 32 0] [2 0] 0 0
s 1.036204439 _0_ AGT  --- 6 tcp 1000 [0 0 0 0] ------- [0:0 5:0 32 0] [3 0] 0 0
r 1.036204439 _0_ RTR  --- 6 tcp 1000 [0 0 0 0] ------- [0:0 5:0 32 0] [3 0] 0 0
s 1.036204439 _0_ AGT  --- 7 tcp 1000 [0 0 0 0] ------- [0:0 5:0 32 0] [4 0] 0 0
r 1.036204439 _0_ RTR  --- 7 tcp 1000 [0 0 0 0] ------- [0:0 5:0 32 0] [4 0] 0 0
s 1.036204439 _0_ RTR  --- 5 tcp 1000 [0 0 0 0] ------- [0:0 5:0 30 5] [2 0] 0 0
s 1.036204439 _0_ RTR  --- 6 tcp 1000 [0 0 0 0] ------- [0:0 5:0 30 5] [3 0] 0 0
s 1.036204439 _0_ RTR  --- 7 tcp 1000 [0 0 0 0] ------- [0:0 5:0 30 5] [4 0] 0 0
r 1.036494023 _5_ MAC  --- 0 ACK 38 [0 5 0 0] 
s 1.036754042 _2_ MAC  --- 0 AODV 106 [0 ffffffff 2 800] ------- [2:255 -1:255 29 0] [0x2 2 1 [5 0] [0 4]] (REQUEST)
r 1.037602436 _1_ MAC  --- 0 AODV 48 [0 ffffffff 2 800] ------- [2:255 -1:255 29 0] [0x2 2 1 [5 0] [0 4]] (REQUEST)
r 1.037602680 _0_ MAC  --- 0 AODV 48 [0 ffffffff 2 800] ------- [2:255 -1:255 29 0] [0x2 2 1 [5 0] [0 4]] (REQUEST)
r 1.037627436 _1_ RTR  --- 0 AODV 48 [0 ffffffff 2 800] ------- [2:255 -1:255 29 0] [0x2 2 1 [5 0] [0 4]] (REQUEST)
r 1.037627680 _0_ RTR  --- 0 AODV 48 [0 ffffffff 2 800] ------- [2:255 -1:255 29 0] [0x2 2 1 [5 0] [0 4]] (REQUEST)
s 1.037892680 _0_ MAC  --- 0 RTS 44 [52e 6 0 0] 
r 1.038245513 _6_ MAC  --- 0 RTS 44 [52e 6 0 0] 
s 1.038255513 _6_ MAC  --- 0 CTS 38 [3f4 0 0 0] 
r 1.038560346 _0_ MAC  --- 0 CTS 38 [3f4 0 0 0] 
s 1.038570346 _0_ MAC  --- 0 ARP 86 [13a 6 0 806] ------- [REPLY 0/0 6/6]
r 1.039259180 _6_ MAC  --- 0 ARP 28 [13a 6 0 806] ------- [REPLY 0/0 6/6]
s 1.039269180 _6_ MAC  --- 0 ACK 38 [0 0 0 0] 
r 1.039574013 _0_ MAC  --- 0 ACK 38 [0 0 0 0] 
s 1.039684013 _0_ MAC  --- 0 RTS 44 [238e 5 0 0] 
r 1.040036596 _5_ MAC  --- 0 RTS 44 [238e 5 0 0] 
s 1.040046596 _5_ MAC  --- 0 CTS 38 [2254 0 0 0] 
r 1.040351179 _0_ MAC  --- 0 CTS 38 [2254 0 0 0] 
s 1.040361179 _0_ MAC  --- 5 tcp 1058 [13a 5 0 800] ------- [0:0 5:0 30 5] [2 0] 0 0
r 1.048825762 _5_ MAC  --- 5 tcp 1000 [13a 5 0 800] ------- [0:0 5:0 30 5] [2 0] 1 0
s 1.048835762 _5_ MAC  --- 0 ACK 38 [0 0 0 0] 
r 1.048850762 _5_ AGT  --- 5 tcp 1000 [13a 5 0 800] ------- [0:0 5:0 30 5] [2 0] 1 0
s 1.048850762 _5_ AGT  --- 8 ack 40 [0 0 0 0] ------- [5:0 0:0 32 0] [2 0] 0 0
r 1.048850762 _5_ RTR  --- 8 ack 40 [0 0 0 0] ------- [5:0 0:0 32 0] [2 0] 0 0
s 1.048850762 _5_ RTR  --- 8 ack 40 [0 0 0 0] ------- [5:0 0:0 30 0] [2 0] 0 0
r 1.049140345 _0_ MAC  --- 0 ACK 38 [0 0 0 0] 
s 1.049209762 _5_ MAC  --- 0 RTS 44 [58e 0 5 0] 
r 1.049562345 _0_ MAC  --- 0 RTS 44 [58e 0 5 0] 
s 1.049572345 _0_ MAC  --- 0 CTS 38 [454 5 0 0] 
r 1.049876929 _5_ MAC  --- 0 CTS 38 [454 5 0 0] 
s 1.049886929 _5_ MAC  --- 8 ack 98 [13a 0 5 800] ------- [5:0 0:0 30 0] [2 0] 0 0
r 1.050671512 _0_ MAC  --- 8 ack 40 [13a 0 5 800] ------- [5:0 0:0 30 0] [2 0] 1 0
s 1.050681512 _0_ MAC  --- 0 ACK 38 [0 5 0 0] 
r 1.050696512 _0_ AGT  --- 8 ack 40 [13a 0 5 800] ------- [5:0 0:0 30 0] [2 0] 1 0
s 1.050696512 _0_ AGT  --- 9 tcp 1000 [0 0 0 0] ------- [0:0 5:0 32 0] [5 0] 0 0
r 1.050696512 _0_ RTR  --- 9 tcp 1000 [0 0 0 0] ------- [0:0 5:0 32 0] [5 0] 0 0
s 1.050696512 _0_ RTR  --- 9 tcp 1000 [0 0 0 0] ------- [0:0 5:0 30 5] [5 0] 0 0
r 1.050986095 _5_ MAC  --- 0 ACK 38 [0 5 0 0] 
s 1.051155512 _0_ MAC  --- 0 RTS 44 [238e 5 0 0] 
r 1.051508095 _5_ MAC  --- 0 RTS 44 [238e 5 0 0] 
s 1.051518095 _5_ MAC  --- 0 CTS 38 [2254 0 0 0] 
r 1.051822678 _0_ MAC  --- 0 CTS 38 [2254 0 0 0] 
s 1.051832678 _0_ MAC  --- 6 tcp 1058 [13a 5 0 800] ------- [0:0 5:0 30 5] [3 0] 0 0
r 1.060297261 _5_ MAC  --- 6 tcp 1000 [13a 5 0 800] ------- [0:0 5:0 30 5] [3 0] 1 0
s 1.060307261 _5_ MAC  --- 0 ACK 38 [0 0 0 0] 
r 1.060322261 _5_ AGT  --- 6 tcp 1000 [13a 5 0 800] ------- [0:0 5:0 30 5] [3 0] 1 0
s 1.060322261 _5_ AGT  --- 10 ack 40 [0 0 0 0] ------- [5:0 0:0 32 0] [3 0] 0 0
r 1.060322261 _5_ RTR  --- 10 ack 40 [0 0 0 0] ------- [5:0 0:0 32 0] [3 0] 0 0
s 1.060322261 _5_ RTR  --- 10 ack 40 [0 0 0 0] ------- [5:0 0:0 30 0] [3 0] 0 0
r 1.060611844 _0_ MAC  --- 0 ACK 38 [0 0 0 0] 
s 1.060831512 _3_ MAC  --- 0 AODV 106 [0 ffffffff 3 800] ------- [3:255 -1:255 28 0] [0x2 3 1 [5 0] [0 4]] (REQUEST)
r 1.061679939 _5_ MAC  --- 0 AODV 48 [0 ffffffff 3 800] ------- [3:255 -1:255 28 0] [0x2 3 1 [5 0] [0 4]] (REQUEST)
r 1.061680212 _4_ MAC  --- 0 AODV 48 [0 ffffffff 3 800] ------- [3:255 -1:255 28 0] [0x2 3 1 [5 0] [0 4]] (REQUEST)
r 1.061680287 _6_ MAC  --- 0 AODV 48 [0 ffffffff 3 800] ------- [3:255 -1:255 28 0] [0x2 3 1 [5 0] [0 4]] (REQUEST)
r 1.061704939 _5_ RTR  --- 0 AODV 48 [0 ffffffff 3 800] ------- [3:255 -1:255 28 0] [0x2 3 1 [5 0] [0 4]] (REQUEST)
r 1.061705212 _4_ RTR  --- 0 AODV 48 [0 ffffffff 3 800] ------- [3:255 -1:255 28 0] [0x2 3 1 [5 0] [0 4]] (REQUEST)
r 1.061705287 _6_ RTR  --- 0 AODV 48 [0 ffffffff 3 800] ------- [3:255 -1:255 28 0] [0x2 3 1 [5 0] [0 4]] (REQUEST)
s 1.061809939 _5_ MAC  --- 0 RTS 44 [58e 0 5 0] 
r 1.062162522 _0_ MAC  --- 0 RTS 44 [58e 0 5 0] 
s 1.062172522 _0_ MAC  --- 0 CTS 38 [454 5 0 0] 
r 1.062477105 _5_ MAC  --- 0 CTS 38 [454 5 0 0] 
s 1.062487105 _5_ MAC  --- 10 ack 98 [13a 0 5 800] ------- [5:0 0:0 30 0] [3 0] 0 0
r 1.063271688 _0_ MAC  --- 10 ack 40 [13a 0 5 800] ------- [5:0 0:0 30 0] [3 0] 1 0
s 1.063281688 _0_ MAC  --- 0 ACK 38 [0 5 0 0] 
r 1.063296688 _0_ AGT  --- 10 ack 40 [13a 0 5 800] ------- [5:0 0:0 30 0] [3 0] 1 0
s 1.063296688 _0_ AGT  --- 11 tcp 1000 [0 0 0 0] ------- [0:0 5:0 32 0] [6 0] 0 0
r 1.063296688 _0_ RTR  --- 11 tcp 1000 [0 0 0 0] ------- [0:0 5:0 32 0] [6 0] 0 0
s 1.063296688 _0_ RTR  --- 11 tcp 1000 [0 0 0 0] ------- [0:0 5:0 30 5] [6 0] 0 0
r 1.063586271 _5_ MAC  --- 0 ACK 38 [0 5 0 0] 
s 1.063975688 _0_ MAC  --- 0 RTS 44 [238e 5 0 0] 
r 1.064328271 _5_ MAC  --- 0 RTS 44 [238e 5 0 0] 
s 1.064338271 _5_ MAC  --- 0 CTS 38 [2254 0 0 0] 
r 1.064642854 _0_ MAC  --- 0 CTS 38 [2254 0 0 0] 
s 1.064652854 _0_ MAC  --- 7 tcp 1058 [13a 5 0 800] ------- [0:0 5:0 30 5] [4 0] 0 0
r 1.073117437 _5_ MAC  --- 7 tcp 1000 [13a 5 0 800] ------- [0:0 5:0 30 5] [4 0] 1 0
s 1.073127437 _5_ MAC  --- 0 ACK 38 [0 0 0 0] 
r 1.073142437 _5_ AGT  --- 7 tcp 1000 [13a 5 0 800] ------- [0:0 5:0 30 5] [4 0] 1 0
s 1.073142437 _5_ AGT  --- 12 ack 40 [0 0 0 0] ------- [5:0 0:0 32 0] [4 0] 0 0
r 1.073142437 _5_ RTR  --- 12 ack 40 [0 0 0 0] ------- [5:0 0:0 32 0] [4 0] 0 0
s 1.073142437 _5_ RTR  --- 12 ack 40 [0 0 0 0] ------- [5:0 0:0 30 0] [4 0] 0 0
r 1.073432020 _0_ MAC  --- 0 ACK 38 [0 0 0 0] 
s 1.073571859 _8_ MAC  --- 0 AODV 106 [0 ffffffff 8 800] ------- [8:255 -1:255 27 0] [0x2 4 1 [6 0] [2 4]] (REQUEST)
r 1.074420665 _5_ MAC  --- 0 AODV 48 [0 ffffffff 8 800] ------- [8:255 -1:255 27 0] [0x2 4 1 [6 0] [2 4]] (REQUEST)
r 1.074445665 _5_ RTR  --- 0 AODV 48 [0 ffffffff 8 800] ------- [8:255 -1:255 27 0] [0x2 4 1 [6 0] [2 4]] (REQUEST)
s 1.074670665 _5_ MAC  --- 0 RTS 44 [58e 0 5 0] 
r 1.075023248 _0_ MAC  --- 0 RTS 44 [58e 0 5 0] 
s 1.075033248 _0_ MAC  --- 0 CTS 38 [454 5 0 0] 
r 1.075337832 _5_ MAC  --- 0 CTS 38 [454 5 0 0] 
s 1.075347832 _5_ MAC  --- 12 ack 98 [13a 0 5 800] ------- [5:0 0:0 30 0] [4 0] 0 0
r 1.076132415 _0_ MAC  --- 12 ack 40 [13a 0 5 800] ------- [5:0 0:0 30 0] [4 0] 1 0
s 1.076142415 _0_ MAC  --- 0 ACK 38 [0 5 0 0] 
r 1.076157415 _0_ AGT  --- 12 ack 40 [13a 0 5 800] ------- [5:0 0:0 30 0] [4 0] 1 0
s 1.076157415 _0_ AGT  --- 13 tcp 1000 [0 0 0 0] ------- [0:0 5:0 32 0] [7 0] 0 0
r 1.076157415 _0_ RTR  --- 13 tcp 1000 [0 0 0 0] ------- [0:0 5:0 32 0] [7 0] 0 0
s 1.076157415 _0_ RTR  --- 13 tcp 1000 [0 0 0 0] ------- [0:0 5:0 30 5] [7 0] 0 0
r 1.076446998 _5_ MAC  --- 0 ACK 38 [0 5 0 0] 
s 1.076646798 _6_ MAC  --- 0 RTS 44 [5ae 0 6 0] 
r 1.076999632 _0_ MAC  --- 0 RTS 44 [5ae 0 6 0] 
s 1.077009632 _0_ MAC  --- 0 CTS 38 [474 6 0 0] 
r 1.077314465 _6_ MAC  --- 0 CTS 38 [474 6 0 0] 
s 1.077324465 _6_ MAC  --- 0 AODV 102 [13a 0 6 800] ------- [6:255 2:255 30 0] [0x4 1 [6 4] 10.000000] (REPLY)
r 1.078141298 _0_ MAC  --- 0 AODV 44 [13a 0 6 800] ------- [6:255 2:255 30 0] [0x4 1 [6 4] 10.000000] (REPLY)
s 1.078151298 _0_ MAC  --- 0 ACK 38 [0 6 0 0] 
r 1.078166298 _0_ RTR  --- 0 AODV 44 [13a 0 6 800] ------- [6:255 2:255 30 0] [0x4 1 [6 4] 10.000000] (REPLY)
f 1.078166298 _0_ RTR  --- 0 AODV 44 [13a 0 6 800] ------- [6:255 2:255 29 2] [0x4 2 [6 4] 10.000000] (REPLY)
r 1.078456132 _6_ MAC  --- 0 ACK 38 [0 6 0 0] 
s 1.078765298 _0_ MAC  --- 0 RTS 44 [238e 5 0 0] 
r 1.079117881 _5_ MAC  --- 0 RTS 44 [238e 5 0 0] 
s 1.079127881 _5_ MAC  --- 0 CTS 38 [2254 0 0 0] 
r 1.079432464 _0_ MAC  --- 0 CTS 38 [2254 0 0 0] 
s 1.079442464 _0_ MAC  --- 9 tcp 1058 [13a 5 0 800] ------- [0:0 5:0 30 5] [5 0] 0 0
r 1.087907048 _5_ MAC  --- 9 tcp 1000 [13a 5 0 800] ------- [0:0 5:0 30 5] [5 0] 1 0
s 1.087917048 _5_ MAC  --- 0 ACK 38 [0 0 0 0] 
r 1.087932048 _5_ AGT  --- 9 tcp 1000 [13a 5 0 800] ------- [0:0 5:0 30 5] [5 0] 1 0
s 1.087932048 _5_ AGT  --- 14 ack 40 [0 0 0 0] ------- [5:0 0:0 32 0] [5 0] 0 0
r 1.087932048 _5_ RTR  --- 14 ack 40 [0 0 0 0] ------- [5:0 0:0 32 0] [5 0] 0 0
s 1.087932048 _5_ RTR  --- 14 ack 40 [0 0 0 0] ------- [5:0 0:0 30 0] [5 0] 0 0
r 1.088221631 _0_ MAC  --- 0 ACK 38 [0 0 0 0] 
s 1.088431048 _5_ MAC  --- 0 RTS 44 [58e 0 5 0] 
r 1.088783631 _0_ MAC  --- 0 RTS 44 [58e 0 5 0] 
s 1.088793631 _0_ MAC  --- 0 CTS 38 [454 5 0 0] 
r 1.089098214 _5_ MAC  --- 0 CTS 38 [454 5 0 0] 
s 1.089108214 _5_ MAC  --- 14 ack 98 [13a 0 5 800] ------- [5:0 0:0 30 0] [5 0] 0 0
r 1.089892797 _0_ MAC  --- 14 ack 40 [13a 0 5 800] ------- [5:0 0:0 30 0] [5 0] 1 0
s 1.089902797 _0_ MAC  --- 0 ACK 38 [0 5 0 0] 
r 1.089917797 _0_ AGT  --- 14 ack 40 [13a 0 5 800] ------- [5:0 0:0 30 0] [5 0] 1 0
r 1.090207380 _5_ MAC  --- 0 ACK 38 [0 5 0 0] 
s 1.090336797 _0_ MAC  --- 0 RTS 44 [238e 5 0 0] 
r 1.090689380 _5_ MAC  --- 0 RTS 44 [238e 5 0 0] 
s 1.090699380 _5_ MAC  --- 0 CTS 38 [2254 0 0 0] 
r 1.091003963 _0_ MAC  --- 0 CTS 38 [2254 0 0 0] 
s 1.091013963 _0_ MAC  --- 11 tcp 1058 [13a 5 0 800] ------- [0:0 5:0 30 5] [6 0] 0 0
r 1.099478546 _5_ MAC  --- 11 tcp 1000 [13a 5 0 800] ------- [0:0 5:0 30 5] [6 0] 1 0
s 1.099488546 _5_ MAC  --- 0 ACK 38 [0 0 0 0] 
r 1.099503546 _5_ AGT  --- 11 tcp 1000 [13a 5 0 800] ------- [0:0 5:0 30 5] [6 0] 1 0
s 1.099503546 _5_ AGT  --- 15 ack 40 [0 0 0 0] ------- [5:0 0:0 32 0] [6 0] 0 0
r 1.099503546 _5_ RTR  --- 15 ack 40 [0 0 0 0] ------- [5:0 0:0 32 0] [6 0] 0 0
s 1.099503546 _5_ RTR  --- 15 ack 40 [0 0 0 0] ------- [5:0 0:0 30 0] [6 0] 0 0
r 1.099793129 _0_ MAC  --- 0 ACK 38 [0 0 0 0] 
s 1.099843129 _0_ MAC  --- 0 RTS 44 [238e 5 0 0] 
r 1.100195712 _5_ MAC  --- 0 RTS 44 [238e 5 0 0] 
s 1.100205712 _5_ MAC  --- 0 CTS 38 [2254 0 0 0] 
r 1.100510295 _0_ MAC  --- 0 CTS 38 [2254 0 0 0] 
s 1.100520295 _0_ MAC  --- 13 tcp 1058 [13a 5 0 800] ------- [0:0 5:0 30 5] [7 0] 0 0
r 1.108984878 _5_ MAC  --- 13 tcp 1000 [13a 5 0 800] ------- [0:0 5:0 30 5] [7 0] 1 0
s 1.108994878 _5_ MAC  --- 0 ACK 38 [0 0 0 0] 
r 1.109009878 _5_ AGT  --- 13 tcp 1000 [13a 5 0 800] ------- [0:0 5:0 30 5] [7 0] 1 0
s 1.109009878 _5_ AGT  --- 16 ack 40 [0 0 0 0] ------- [5:0 0:0 32 0] [7 0] 0 0
r 1.109009878 _5_ RTR  --- 16 ack 40 [0 0 0 0] ------- [5:0 0:0 32 0] [7 0] 0 0
s 1.109009878 _5_ RTR  --- 16 ack 40 [0 0 0 0] ------- [5:0 0:0 30 0] [7 0] 0 0
r 1.109299462 _0_ MAC  --- 0 ACK 38 [0 0 0 0] 
s 1.109459129 _3_ MAC  --- 0 AODV 106 [0 ffffffff 3 800] ------- [3:255 -1:255 27 0] [0x2 4 1 [6 0] [2 4]] (REQUEST)
r 1.110307556 _5_ MAC  --- 0 AODV 48 [0 ffffffff 3 800] ------- [3:255 -1:255 27 0] [0x2 4 1 [6 0] [2 4]] (REQUEST)
r 1.110307829 _4_ MAC  --- 0 AODV 48 [0 ffffffff 3 800] ------- [3:255 -1:255 27 0] [0x2 4 1 [6 0] [2 4]] (REQUEST)
r 1.110307905 _6_ MAC  --- 0 AODV 48 [0 ffffffff 3 800] ------- [3:255 -1:255 27 0] [0x2 4 1 [6 0] [2 4]] (REQUEST)
r 1.110332556 _5_ RTR  --- 0 AODV 48 [0 ffffffff 3 800] ------- [3:255 -1:255 27 0] [0x2 4 1 [6 0] [2 4]] (REQUEST)
r 1.110332829 _4_ RTR  --- 0 AODV 48 [0 ffffffff 3 800] ------- [3:255 -1:255 27 0] [0x2 4 1 [6 0] [2 4]] (REQUEST)
r 1.110332905 _6_ RTR  --- 0 AODV 48 [0 ffffffff 3 800] ------- [3:255 -1:255 27 0] [0x2 4 1 [6 0] [2 4]] (REQUEST)
s 1.110377829 _4_ MAC  --- 0 AODV 106 [0 ffffffff 4 800] ------- [4:255 -1:255 28 0] [0x2 3 1 [5 0] [0 4]] (REQUEST)
r 1.111226163 _6_ MAC  --- 0 AODV 48 [0 ffffffff 4 800] ------- [4:255 -1:255 28 0] [0x2 3 1 [5 0] [0 4]] (REQUEST)
r 1.111226529 _3_ MAC  --- 0 AODV 48 [0 ffffffff 4 800] ------- [4:255 -1:255 28 0] [0x2 3 1 [5 0] [0 4]] (REQUEST)
r 1.111251163 _6_ RTR  --- 0 AODV 48 [0 ffffffff 4 800] ------- [4:255 -1:255 28 0] [0x2 3 1 [5 0] [0 4]] (REQUEST)
r 1.111251529 _3_ RTR  --- 0 AODV 48 [0 ffffffff 4 800] ------- [4:255 -1:255 28 0] [0x2 3 1 [5 0] [0 4]] (REQUEST)
s 1.111780897 _0_ MAC  --- 0 ARP 86 [0 ffffffff 0 806] ------- [REQUEST 0/0 0/2]
r 1.112469230 _1_ MAC  --- 0 ARP 28 [0 ffffffff 0 806] ------- [REQUEST 0/0 0/2]
r 1.112469480 _5_ MAC  --- 0 ARP 28 [0 ffffffff 0 806] ------- [REQUEST 0/0 0/2]
r 1.112469553 _2_ MAC  --- 0 ARP 28 [0 ffffffff 0 806] ------- [REQUEST 0/0 0/2]
r 1.112469730 _6_ MAC  --- 0 ARP 28 [0 ffffffff 0 806] ------- [REQUEST 0/0 0/2]
s 1.112559480 _5_ MAC  --- 0 RTS 44 [58e 0 5 0] 
r 1.112912063 _0_ MAC  --- 0 RTS 44 [58e 0 5 0] 
s 1.112922063 _0_ MAC  --- 0 CTS 38 [454 5 0 0] 
r 1.113226646 _5_ MAC  --- 0 CTS 38 [454 5 0 0] 
s 1.113236646 _5_ MAC  --- 15 ack 98 [13a 0 5 800] ------- [5:0 0:0 30 0] [6 0] 0 0
r 1.114021229 _0_ MAC  --- 15 ack 40 [13a 0 5 800] ------- [5:0 0:0 30 0] [6 0] 1 0
s 1.114031229 _0_ MAC  --- 0 ACK 38 [0 5 0 0] 
r 1.114046229 _0_ AGT  --- 15 ack 40 [13a 0 5 800] ------- [5:0 0:0 30 0] [6 0] 1 0
s 1.114046229 _0_ AGT  --- 17 tcp 1000 [0 0 0 0] ------- [0:0 5:0 32 0] [8 0] 0 0
r 1.114046229 _0_ RTR  --- 17 tcp 1000 [0 0 0 0] ------- [0:0 5:0 32 0] [8 0] 0 0
s 1.114046229 _0_ RTR  --- 17 tcp 1000 [0 0 0 0] ------- [0:0 5:0 30 5] [8 0] 0 0
r 1.114335812 _5_ MAC  --- 0 ACK 38 [0 5 0 0] 
s 1.114505812 _5_ MAC  --- 0 RTS 44 [58e 0 5 0] 
r 1.114858395 _0_ MAC  --- 0 RTS 44 [58e 0 5 0] 
s 1.114868395 _0_ MAC  --- 0 CTS 38 [454 5 0 0] 
r 1.115172978 _5_ MAC  --- 0 CTS 38 [454 5 0 0] 
s 1.115182978 _5_ MAC  --- 16 ack 98 [13a 0 5 800] ------- [5:0 0:0 30 0] [7 0] 0 0
r 1.115967561 _0_ MAC  --- 16 ack 40 [13a 0 5 800] ------- [5:0 0:0 30 0] [7 0] 1 0
s 1.115977561 _0_ MAC  --- 0 ACK 38 [0 5 0 0] 
r 1.115992561 _0_ AGT  --- 16 ack 40 [13a 0 5 800] ------- [5:0 0:0 30 0] [7 0] 1 0
s 1.115992561 _0_ AGT  --- 18 tcp 1000 [0 0 0 0] ------- [0:0 5:0 32 0] [9 0] 0 0
r 1.115992561 _0_ RTR  --- 18 tcp 1000 [0 0 0 0] ------- [0:0 5:0 32 0] [9 0] 0 0
s 1.115992561 _0_ RTR  --- 18 tcp 1000 [0 0 0 0] ------- [0:0 5:0 30 5] [9 0] 0 0
r 1.116282144 _5_ MAC  --- 0 ACK 38 [0 5 0 0] 
s 1.116542180 _2_ MAC  --- 0 RTS 44 [52e 0 2 0] 
r 1.116894837 _0_ MAC  --- 0 RTS 44 [52e 0 2 0] 
s 1.116904837 _0_ MAC  --- 0 CTS 38 [3f4 2 0 0] 
r 1.117209494 _2_ MAC  --- 0 CTS 38 [3f4 2 0 0] 
s 1.117219494 _2_ MAC  --- 0 ARP 86 [13a 0 2 806] ------- [REPLY 2/2 0/0]
r 1.117908152 _0_ MAC  --- 0 ARP 28 [13a 0 2 806] ------- [REPLY 2/2 0/0]
s 1.117918152 _0_ MAC  --- 0 ACK 38 [0 2 0 0] 
s 1.118059787 _4_ RTR  --- 0 AODV 48 [0 ffffffff 3 800] ------- [4:255 -1:255 26 0] [0x2 5 1 [6 0] [2 4]] (REQUEST)
r 1.118222809 _2_ MAC  --- 0 ACK 38 [0 2 0 0] 
s 1.118392152 _0_ MAC  --- 0 RTS 44 [238e 5 0 0] 
r 1.118744735 _5_ MAC  --- 0 RTS 44 [238e 5 0 0] 
s 1.118754735 _5_ MAC  --- 0 CTS 38 [2254 0 0 0] 
r 1.119059318 _0_ MAC  --- 0 CTS 38 [2254 0 0 0] 
s 1.119069318 _0_ MAC  --- 17 tcp 1058 [13a 5 0 800] ------- [0:0 5:0 30 5] [8 0] 0 0
r 1.127533901 _5_ MAC  --- 17 tcp 1000 [13a 5 0 800] ------- [0:0 5:0 30 5] [8 0] 1 0
s 1.127543901 _5_ MAC  --- 0 ACK 38 [0 0 0 0] 
r 1.127558901 _5_ AGT  --- 17 tcp 1000 [13a 5 0 800] ------- [0:0 5:0 30 5] [8 0] 1 0
s 1.127558901 _5_ AGT  --- 19 ack 40 [0 0 0 0] ------- [5:0 0:0 32 0] [8 0] 0 0