n -t * -s 0  -x 0 -y 0 -Z 0 -z 50  -v circle -c black
n -t * -s 1  -x 0 -y 0 -Z 0 -z 50  -v circle -c black
n -t * -s 2  -x 0 -y 0 -Z 0 -z 50  -v circle -c black
n -t * -s 3  -x 0 -y 0 -Z 0 -z 50  -v circle -c black
n -t * -s 4  -x 0 -y 0 -Z 0 -z 50  -v circle -c black
n -t * -s 5  -x 0 -y 0 -Z 0 -z 50  -v circle -c black
n -t * -s 6  -x 0 -y 0 -Z 0 -z 50  -v circle -c black
n -t * -s 7  -x 0 -y 0 -Z 0 -z 50  -v circle -c black
n -t * -s 8  -x 0 -y 0 -Z 0 -z 50  -v circle -c black
n -t * -s 9  -x 0 -y 0 -Z 0 -z 50  -v circle -c black
V -t * -v 1.0a5 -a 0
W -t * -x 500 -y 500
A -t * -n 1 -p 0 -o 0x7fffffff -c 30 -a 1
A -t * -h 1 -m 1073741823 -s 0
n -t 1.000000 -s 0 -x -110.000000 -y 350.000000 -U 0.000000 -V -0.000000 -T 0.000000
n -t 1.000000 -s 1 -x -10.000000 -y 350.000000 -U 0.000000 -V -0.000000 -T 0.000000
n -t 1.000000 -s 2 -x 50.000000 -y 450.000000 -U 85.000000 -V 0.000000 -T 1.764706
n -t 1.000000 -s 3 -x -120.000000 -y 100.000000 -U 0.000000 -V 0.000000 -T 0.000000
n -t 1.000000 -s 4 -x 90.000000 -y 100.000000 -U -0.000000 -V -0.000000 -T 0.000000
n -t 1.000000 -s 5 -x -200.000000 -y 200.000000 -U 0.000000 -V 0.000000 -T 0.000000
n -t 1.000000 -s 6 -x 90.000000 -y 200.000000 -U -0.000000 -V 0.000000 -T 0.000000
n -t 1.000000 -s 7 -x 400.000000 -y 100.000000 -U -0.000000 -V 0.000000 -T 0.000000
n -t 1.000000 -s 8 -x -410.000000 -y 320.000000 -U 0.000000 -V -0.000000 -T 0.000000
n -t 1.000000 -s 9 -x 280.000000 -y -140.000000 -U -0.000000 -V 0.000000 -T 0.000000
n -t 1 -s 0 -S COLOR -c red -o red -i red -I red
n -t 1 -s 5 -S COLOR -c red -o red -i red -I red
n -t 1 -s 2 -S COLOR -c darkgreen -o darkgreen -i darkgreen -I darkgreen
+ -t 1.000000000 -s 0 -d -1 -p tcp -e 1000 -c 2 -a 0 -i 0 -k AGT 
- -t 1.000000000 -s 0 -d -1 -p tcp -e 1000 -c 2 -a 0 -i 0 -k AGT
h -t 1.000000000 -s 0 -d -1 -p tcp -e 1000 -c 2 -a 0 -i 0 -k AGT
+ -t 1.000000000 -s 2 -d -1 -p tcp -e 1000 -c 2 -a 0 -i 1 -k AGT 
- -t 1.000000000 -s 2 -d -1 -p tcp -e 1000 -c 2 -a 0 -i 1 -k AGT
h -t 1.000000000 -s 2 -d -1 -p tcp -e 1000 -c 2 -a 0 -i 1 -k AGT
+ -t 1.000000000 -s 0 -d -1 -p AODV -e 48 -c 2 -a 0 -i 0 -k RTR 
- -t 1.000000000 -s 0 -d -1 -p AODV -e 48 -c 2 -a 0 -i 0 -k RTR
h -t 1.000000000 -s 0 -d -1 -p AODV -e 48 -c 2 -a 0 -i 0 -k RTR
+ -t 1.000000000 -s 2 -d -1 -p AODV -e 48 -c 2 -a 0 -i 0 -k RTR 
- -t 1.000000000 -s 2 -d -1 -p AODV -e 48 -c 2 -a 0 -i 0 -k RTR
h -t 1.000000000 -s 2 -d -1 -p AODV -e 48 -c 2 -a 0 -i 0 -k RTR
+ -t 1.000075000 -s 2 -d -1 -p AODV -e 106 -c 2 -a 0 -i 0 -k MAC 
- -t 1.000075000 -s 2 -d -1 -p AODV -e 106 -c 2 -a 0 -i 0 -k MAC
h -t 1.000075000 -s 2 -d -1 -p AODV -e 106 -c 2 -a 0 -i 0 -k MAC
r -t 1.000923389 -s 1 -d -1 -p AODV -e 48 -c 2 -a 0 -i 0 -k MAC
r -t 1.000923629 -s 0 -d -1 -p AODV -e 48 -c 2 -a 0 -i 0 -k MAC
r -t 1.000948389 -s 1 -d -1 -p AODV -e 48 -c 2 -a 0 -i 0 -k RTR
r -t 1.000948629 -s 0 -d -1 -p AODV -e 48 -c 2 -a 0 -i 0 -k RTR
+ -t 1.001293629 -s 0 -d -1 -p AODV -e 106 -c 2 -a 0 -i 0 -k MAC 
- -t 1.001293629 -s 0 -d -1 -p AODV -e 106 -c 2 -a 0 -i 0 -k MAC
h -t 1.001293629 -s 0 -d -1 -p AODV -e 106 -c 2 -a 0 -i 0 -k MAC
r -t 1.002141962 -s 1 -d -1 -p AODV -e 48 -c 2 -a 0 -i 0 -k MAC
r -t 1.002142212 -s 5 -d -1 -p AODV -e 48 -c 2 -a 0 -i 0 -k MAC
r -t 1.002142258 -s 2 -d -1 -p AODV -e 48 -c 2 -a 0 -i 0 -k MAC
r -t 1.002142462 -s 6 -d -1 -p AODV -e 48 -c 2 -a 0 -i 0 -k MAC
r -t 1.002166962 -s 1 -d -1 -p AODV -e 48 -c 2 -a 0 -i 0 -k RTR
r -t 1.002167212 -s 5 -d -1 -p AODV -e 48 -c 2 -a 0 -i 0 -k RTR
+ -t 1.002167212 -s 5 -d 0 -p AODV -e 44 -c 2 -a 0 -i 0 -k RTR 
- -t 1.002167212 -s 5 -d 0 -p AODV -e 44 -c 2 -a 0 -i 0 -k RTR
h -t 1.002167212 -s 5 -d 0 -p AODV -e 44 -c 2 -a 0 -i 0 -k RTR
r -t 1.002167258 -s 2 -d -1 -p AODV -e 48 -c 2 -a 0 -i 0 -k RTR
r -t 1.002167462 -s 6 -d -1 -p AODV -e 48 -c 2 -a 0 -i 0 -k RTR
+ -t 1.002762212 -s 5 -d -1 -p ARP -e 86 -c 2 -a 0 -i 0 -k MAC 
- -t 1.002762212 -s 5 -d -1 -p ARP -e 86 -c 2 -a 0 -i 0 -k MAC
h -t 1.002762212 -s 5 -d -1 -p ARP -e 86 -c 2 -a 0 -i 0 -k MAC
+ -t 1.003294646 -s 0 -d -1 -p AODV -e 48 -c 2 -a 0 -i 0 -k RTR 
- -t 1.003294646 -s 0 -d -1 -p AODV -e 48 -c 2 -a 0 -i 0 -k RTR
h -t 1.003294646 -s 0 -d -1 -p AODV -e 48 -c 2 -a 0 -i 0 -k RTR
r -t 1.003450639 -s 3 -d -1 -p ARP -e 28 -c 2 -a 0 -i 0 -k MAC
r -t 1.003450795 -s 0 -d -1 -p ARP -e 28 -c 2 -a 0 -i 0 -k MAC
r -t 1.003451018 -s 8 -d -1 -p ARP -e 28 -c 2 -a 0 -i 0 -k MAC
r -t 1.003451019 -s 1 -d -1 -p ARP -e 28 -c 2 -a 0 -i 0 -k MAC
+ -t 1.003660795 -s 0 -d -1 -p AODV -e 106 -c 2 -a 0 -i 0 -k MAC 
- -t 1.003660795 -s 0 -d -1 -p AODV -e 106 -c 2 -a 0 -i 0 -k MAC
h -t 1.003660795 -s 0 -d -1 -p AODV -e 106 -c 2 -a 0 -i 0 -k MAC
+ -t 1.003808916 -s 6 -d -1 -p AODV -e 48 -c 2 -a 0 -i 0 -k RTR 
- -t 1.003808916 -s 6 -d -1 -p AODV -e 48 -c 2 -a 0 -i 0 -k RTR
h -t 1.003808916 -s 6 -d -1 -p AODV -e 48 -c 2 -a 0 -i 0 -k RTR
r -t 1.004509128 -s 1 -d -1 -p AODV -e 48 -c 2 -a 0 -i 0 -k MAC
r -t 1.004509378 -s 5 -d -1 -p AODV -e 48 -c 2 -a 0 -i 0 -k MAC
r -t 1.004509425 -s 2 -d -1 -p AODV -e 48 -c 2 -a 0 -i 0 -k MAC
r -t 1.004509628 -s 6 -d -1 -p AODV -e 48 -c 2 -a 0 -i 0 -k MAC
r -t 1.004534128 -s 1 -d -1 -p AODV -e 48 -c 2 -a 0 -i 0 -k RTR
r -t 1.004534378 -s 5 -d -1 -p AODV -e 48 -c 2 -a 0 -i 0 -k RTR
r -t 1.004534425 -s 2 -d -1 -p AODV -e 48 -c 2 -a 0 -i 0 -k RTR
r -t 1.004534628 -s 6 -d -1 -p AODV -e 48 -c 2 -a 0 -i 0 -k RTR
+ -t 1.004534628 -s 6 -d 0 -p AODV -e 44 -c 2 -a 0 -i 0 -k RTR 
- -t 1.004534628 -s 6 -d 0 -p AODV -e 44 -c 2 -a 0 -i 0 -k RTR
h -t 1.004534628 -s 6 -d 0 -p AODV -e 44 -c 2 -a 0 -i 0 -k RTR
+ -t 1.004718795 -s 0 -d -1 -p RTS -e 44 -c 2 -a 0 -i 0 -k MAC 
- -t 1.004718795 -s 0 -d -1 -p RTS -e 44 -c 2 -a 0 -i 0 -k MAC
h -t 1.004718795 -s 0 -d -1 -p RTS -e 44 -c 2 -a 0 -i 0 -k MAC
r -t 1.005071378 -s 5 -d -1 -p RTS -e 44 -c 2 -a 0 -i 0 -k MAC
+ -t 1.005081378 -s 5 -d -1 -p CTS -e 38 -c 2 -a 0 -i 0 -k MAC 
- -t 1.005081378 -s 5 -d -1 -p CTS -e 38 -c 2 -a 0 -i 0 -k MAC
h -t 1.005081378 -s 5 -d -1 -p CTS -e 38 -c 2 -a 0 -i 0 -k MAC
+ -t 1.005257753 -s 1 -d -1 -p AODV -e 48 -c 2 -a 0 -i 0 -k RTR 
- -t 1.005257753 -s 1 -d -1 -p AODV -e 48 -c 2 -a 0 -i 0 -k RTR
h -t 1.005257753 -s 1 -d -1 -p AODV -e 48 -c 2 -a 0 -i 0 -k RTR
r -t 1.005385961 -s 0 -d -1 -p CTS -e 38 -c 2 -a 0 -i 0 -k MAC
+ -t 1.005395961 -s 0 -d -1 -p ARP -e 86 -c 2 -a 0 -i 0 -k MAC 
- -t 1.005395961 -s 0 -d -1 -p ARP -e 86 -c 2 -a 0 -i 0 -k MAC
h -t 1.005395961 -s 0 -d -1 -p ARP -e 86 -c 2 -a 0 -i 0 -k MAC
r -t 1.006084544 -s 5 -d -1 -p ARP -e 28 -c 2 -a 0 -i 0 -k MAC
+ -t 1.006094544 -s 5 -d -1 -p ACK -e 38 -c 2 -a 0 -i 0 -k MAC 
- -t 1.006094544 -s 5 -d -1 -p ACK -e 38 -c 2 -a 0 -i 0 -k MAC
h -t 1.006094544 -s 5 -d -1 -p ACK -e 38 -c 2 -a 0 -i 0 -k MAC
+ -t 1.006282431 -s 5 -d -1 -p AODV -e 48 -c 2 -a 0 -i 0 -k RTR 
- -t 1.006282431 -s 5 -d -1 -p AODV -e 48 -c 2 -a 0 -i 0 -k RTR
h -t 1.006282431 -s 5 -d -1 -p AODV -e 48 -c 2 -a 0 -i 0 -k RTR
r -t 1.006399128 -s 0 -d -1 -p ACK -e 38 -c 2 -a 0 -i 0 -k MAC
+ -t 1.006508544 -s 5 -d -1 -p RTS -e 44 -c 2 -a 0 -i 0 -k MAC 
- -t 1.006508544 -s 5 -d -1 -p RTS -e 44 -c 2 -a 0 -i 0 -k MAC
h -t 1.006508544 -s 5 -d -1 -p RTS -e 44 -c 2 -a 0 -i 0 -k MAC
r -t 1.006861128 -s 0 -d -1 -p RTS -e 44 -c 2 -a 0 -i 0 -k MAC
+ -t 1.006871128 -s 0 -d -1 -p CTS -e 38 -c 2 -a 0 -i 0 -k MAC 
- -t 1.006871128 -s 0 -d -1 -p CTS -e 38 -c 2 -a 0 -i 0 -k MAC
h -t 1.006871128 -s 0 -d -1 -p CTS -e 38 -c 2 -a 0 -i 0 -k MAC
r -t 1.007175711 -s 5 -d -1 -p CTS -e 38 -c 2 -a 0 -i 0 -k MAC
+ -t 1.007185711 -s 5 -d 0 -p AODV -e 102 -c 2 -a 0 -i 0 -k MAC 
- -t 1.007185711 -s 5 -d 0 -p AODV -e 102 -c 2 -a 0 -i 0 -k MAC
h -t 1.007185711 -s 5 -d 0 -p AODV -e 102 -c 2 -a 0 -i 0 -k MAC
r -t 1.008002294 -s 0 -d 0 -p AODV -e 44 -c 2 -a 0 -i 0 -k MAC
+ -t 1.008012294 -s 0 -d -1 -p ACK -e 38 -c 2 -a 0 -i 0 -k MAC 
- -t 1.008012294 -s 0 -d -1 -p ACK -e 38 -c 2 -a 0 -i 0 -k MAC
h -t 1.008012294 -s 0 -d -1 -p ACK -e 38 -c 2 -a 0 -i 0 -k MAC
+ -t 1.008027294 -s 0 -d 5 -p tcp -e 1000 -c 2 -a 0 -i 0 -k RTR 
- -t 1.008027294 -s 0 -d 5 -p tcp -e 1000 -c 2 -a 0 -i 0 -k RTR
h -t 1.008027294 -s 0 -d 5 -p tcp -e 1000 -c 2 -a 0 -i 0 -k RTR
r -t 1.008316877 -s 5 -d -1 -p ACK -e 38 -c 2 -a 0 -i 0 -k MAC
+ -t 1.008516677 -s 6 -d -1 -p AODV -e 106 -c 2 -a 0 -i 0 -k MAC 
- -t 1.008516677 -s 6 -d -1 -p AODV -e 106 -c 2 -a 0 -i 0 -k MAC
h -t 1.008516677 -s 6 -d -1 -p AODV -e 106 -c 2 -a 0 -i 0 -k MAC
+ -t 1.009113149 -s 1 -d -1 -p AODV -e 48 -c 2 -a 0 -i 0 -k RTR 
- -t 1.009113149 -s 1 -d -1 -p AODV -e 48 -c 2 -a 0 -i 0 -k RTR
h -t 1.009113149 -s 1 -d -1 -p AODV -e 48 -c 2 -a 0 -i 0 -k RTR
r -t 1.009365011 -s 4 -d -1 -p AODV -e 48 -c 2 -a 0 -i 0 -k MAC
r -t 1.009365278 -s 1 -d -1 -p AODV -e 48 -c 2 -a 0 -i 0 -k MAC
r -t 1.009365453 -s 3 -d -1 -p AODV -e 48 -c 2 -a 0 -i 0 -k MAC
r -t 1.009365511 -s 0 -d -1 -p AODV -e 48 -c 2 -a 0 -i 0 -k MAC
r -t 1.009390011 -s 4 -d -1 -p AODV -e 48 -c 2 -a 0 -i 0 -k RTR
r -t 1.009390278 -s 1 -d -1 -p AODV -e 48 -c 2 -a 0 -i 0 -k RTR
r -t 1.009390453 -s 3 -d -1 -p AODV -e 48 -c 2 -a 0 -i 0 -k RTR
r -t 1.009390511 -s 0 -d -1 -p AODV -e 48 -c 2 -a 0 -i 0 -k RTR
+ -t 1.009555511 -s 0 -d -1 -p RTS -e 44 -c 2 -a 0 -i 0 -k MAC 
- -t 1.009555511 -s 0 -d -1 -p RTS -e 44 -c 2 -a 0 -i 0 -k MAC
h -t 1.009555511 -s 0 -d -1 -p RTS -e 44 -c 2 -a 0 -i 0 -k MAC
r -t 1.009908094 -s 5 -d -1 -p RTS -e 44 -c 2 -a 0 -i 0 -k MAC
+ -t 1.009918094 -s 5 -d -1 -p CTS -e 38 -c 2 -a 0 -i 0 -k MAC 
- -t 1.009918094 -s 5 -d -1 -p CTS -e 38 -c 2 -a 0 -i 0 -k MAC
h -t 1.009918094 -s 5 -d -1 -p CTS -e 38 -c 2 -a 0 -i 0 -k MAC
r -t 1.010222677 -s 0 -d -1 -p CTS -e 38 -c 2 -a 0 -i 0 -k MAC
+ -t 1.010232677 -s 0 -d 5 -p tcp -e 1058 -c 2 -a 0 -i 0 -k MAC 
- -t 1.010232677 -s 0 -d 5 -p tcp -e 1058 -c 2 -a 0 -i 0 -k MAC
h -t 1.010232677 -s 0 -d 5 -p tcp -e 1058 -c 2 -a 0 -i 0 -k MAC
+ -t 1.010530494 -s 2 -d -1 -p AODV -e 48 -c 2 -a 0 -i 0 -k RTR 
- -t 1.010530494 -s 2 -d -1 -p AODV -e 48 -c 2 -a 0 -i 0 -k RTR
h -t 1.010530494 -s 2 -d -1 -p AODV -e 48 -c 2 -a 0 -i 0 -k RTR
+ -t 1.013476867 -s 4 -d -1 -p AODV -e 48 -c 2 -a 0 -i 0 -k RTR 
- -t 1.013476867 -s 4 -d -1 -p AODV -e 48 -c 2 -a 0 -i 0 -k RTR
h -t 1.013476867 -s 4 -d -1 -p AODV -e 48 -c 2 -a 0 -i 0 -k RTR
+ -t 1.014576941 -s 3 -d -1 -p AODV -e 48 -c 2 -a 0 -i 0 -k RTR 
- -t 1.014576941 -s 3 -d -1 -p AODV -e 48 -c 2 -a 0 -i 0 -k RTR
h -t 1.014576941 -s 3 -d -1 -p AODV -e 48 -c 2 -a 0 -i 0 -k RTR
r -t 1.018697260 -s 5 -d 5 -p tcp -e 1000 -c 2 -a 0 -i 0 -k MAC
+ -t 1.018707260 -s 5 -d -1 -p ACK -e 38 -c 2 -a 0 -i 0 -k MAC 
- -t 1.018707260 -s 5 -d -1 -p ACK -e 38 -c 2 -a 0 -i 0 -k MAC
h -t 1.018707260 -s 5 -d -1 -p ACK -e 38 -c 2 -a 0 -i 0 -k MAC
r -t 1.018722260 -s 5 -d 5 -p tcp -e 1000 -c 2 -a 0 -i 0 -k AGT
+ -t 1.018722260 -s 5 -d -1 -p ack -e 40 -c 2 -a 0 -i 2 -k AGT 
- -t 1.018722260 -s 5 -d -1 -p ack -e 40 -c 2 -a 0 -i 2 -k AGT
h -t 1.018722260 -s 5 -d -1 -p ack -e 40 -c 2 -a 0 -i 2 -k AGT
+ -t 1.018722260 -s 5 -d 0 -p ack -e 40 -c 2 -a 0 -i 2 -k RTR 
- -t 1.018722260 -s 5 -d 0 -p ack -e 40 -c 2 -a 0 -i 2 -k RTR
h -t 1.018722260 -s 5 -d 0 -p ack -e 40 -c 2 -a 0 -i 2 -k RTR
r -t 1.019011843 -s 0 -d -1 -p ACK -e 38 -c 2 -a 0 -i 0 -k MAC
+ -t 1.019082067 -s 1 -d -1 -p AODV -e 106 -c 2 -a 0 -i 0 -k MAC 
- -t 1.019082067 -s 1 -d -1 -p AODV -e 106 -c 2 -a 0 -i 0 -k MAC
h -t 1.019082067 -s 1 -d -1 -p AODV -e 106 -c 2 -a 0 -i 0 -k MAC
r -t 1.019930400 -s 0 -d -1 -p AODV -e 48 -c 2 -a 0 -i 0 -k MAC
r -t 1.019930458 -s 2 -d -1 -p AODV -e 48 -c 2 -a 0 -i 0 -k MAC
r -t 1.019930668 -s 6 -d -1 -p AODV -e 48 -c 2 -a 0 -i 0 -k MAC
r -t 1.019930874 -s 5 -d -1 -p AODV -e 48 -c 2 -a 0 -i 0 -k MAC
r -t 1.019955400 -s 0 -d -1 -p AODV -e 48 -c 2 -a 0 -i 0 -k RTR
r -t 1.019955458 -s 2 -d -1 -p AODV -e 48 -c 2 -a 0 -i 0 -k RTR
r -t 1.019955668 -s 6 -d -1 -p AODV -e 48 -c 2 -a 0 -i 0 -k RTR
r -t 1.019955874 -s 5 -d -1 -p AODV -e 48 -c 2 -a 0 -i 0 -k RTR
+ -t 1.020020874 -s 5 -d -1 -p AODV -e 106 -c 2 -a 0 -i 0 -k MAC 
- -t 1.020020874 -s 5 -d -1 -p AODV -e 106 -c 2 -a 0 -i 0 -k MAC
h -t 1.020020874 -s 5 -d -1 -p AODV -e 106 -c 2 -a 0 -i 0 -k MAC
r -t 1.020869301 -s 3 -d -1 -p AODV -e 48 -c 2 -a 0 -i 0 -k MAC
r -t 1.020869457 -s 0 -d -1 -p AODV -e 48 -c 2 -a 0 -i 0 -k MAC
r -t 1.020869680 -s 8 -d -1 -p AODV -e 48 -c 2 -a 0 -i 0 -k MAC
r -t 1.020869681 -s 1 -d -1 -p AODV -e 48 -c 2 -a 0 -i 0 -k MAC
r -t 1.020894301 -s 3 -d -1 -p AODV -e 48 -c 2 -a 0 -i 0 -k RTR
r -t 1.020894457 -s 0 -d -1 -p AODV -e 48 -c 2 -a 0 -i 0 -k RTR
r -t 1.020894680 -s 8 -d -1 -p AODV -e 48 -c 2 -a 0 -i 0 -k RTR
r -t 1.020894681 -s 1 -d -1 -p AODV -e 48 -c 2 -a 0 -i 0 -k RTR
+ -t 1.021278874 -s 5 -d -1 -p RTS -e 44 -c 2 -a 0 -i 0 -k MAC 
- -t 1.021278874 -s 5 -d -1 -p RTS -e 44 -c 2 -a 0 -i 0 -k MAC
h -t 1.021278874 -s 5 -d -1 -p RTS -e 44 -c 2 -a 0 -i 0 -k MAC
r -t 1.021631457 -s 0 -d -1 -p RTS -e 44 -c 2 -a 0 -i 0 -k MAC
+ -t 1.021641457 -s 0 -d -1 -p CTS -e 38 -c 2 -a 0 -i 0 -k MAC 
- -t 1.021641457 -s 0 -d -1 -p CTS -e 38 -c 2 -a 0 -i 0 -k MAC
h -t 1.021641457 -s 0 -d -1 -p CTS -e 38 -c 2 -a 0 -i 0 -k MAC
r -t 1.021946040 -s 5 -d -1 -p CTS -e 38 -c 2 -a 0 -i 0 -k MAC
+ -t 1.021956040 -s 5 -d 0 -p ack -e 98 -c 2 -a 0 -i 2 -k MAC 
- -t 1.021956040 -s 5 -d 0 -p ack -e 98 -c 2 -a 0 -i 2 -k MAC
h -t 1.021956040 -s 5 -d 0 -p ack -e 98 -c 2 -a 0 -i 2 -k MAC
r -t 1.022740623 -s 0 -d 0 -p ack -e 40 -c 2 -a 0 -i 2 -k MAC
+ -t 1.022750623 -s 0 -d -1 -p ACK -e 38 -c 2 -a 0 -i 0 -k MAC 
- -t 1.022750623 -s 0 -d -1 -p ACK -e 38 -c 2 -a 0 -i 0 -k MAC
h -t 1.022750623 -s 0 -d -1 -p ACK -e 38 -c 2 -a 0 -i 0 -k MAC
r -t 1.022765623 -s 0 -d 0 -p ack -e 40 -c 2 -a 0 -i 2 -k AGT
+ -t 1.022765623 -s 0 -d -1 -p tcp -e 1000 -c 2 -a 0 -i 3 -k AGT 
- -t 1.022765623 -s 0 -d -1 -p tcp -e 1000 -c 2 -a 0 -i 3 -k AGT
h -t 1.022765623 -s 0 -d -1 -p tcp -e 1000 -c 2 -a 0 -i 3 -k AGT
+ -t 1.022765623 -s 0 -d 5 -p tcp -e 1000 -c 2 -a 0 -i 3 -k RTR 
- -t 1.022765623 -s 0 -d 5 -p tcp -e 1000 -c 2 -a 0 -i 3 -k RTR
h -t 1.022765623 -s 0 -d 5 -p tcp -e 1000 -c 2 -a 0 -i 3 -k RTR
r -t 1.023055206 -s 5 -d -1 -p ACK -e 38 -c 2 -a 0 -i 0 -k MAC
+ -t 1.023195007 -s 6 -d -1 -p ARP -e 86 -c 2 -a 0 -i 0 -k MAC 
- -t 1.023195007 -s 6 -d -1 -p ARP -e 86 -c 2 -a 0 -i 0 -k MAC
h -t 1.023195007 -s 6 -d -1 -p ARP -e 86 -c 2 -a 0 -i 0 -k MAC
r -t 1.023883340 -s 4 -d -1 -p ARP -e 28 -c 2 -a 0 -i 0 -k MAC
r -t 1.023883608 -s 1 -d -1 -p ARP -e 28 -c 2 -a 0 -i 0 -k MAC
r -t 1.023883782 -s 3 -d -1 -p ARP -e 28 -c 2 -a 0 -i 0 -k MAC
r -t 1.023883840 -s 0 -d -1 -p ARP -e 28 -c 2 -a 0 -i 0 -k MAC
+ -t 1.024013608 -s 1 -d -1 -p AODV -e 106 -c 2 -a 0 -i 0 -k MAC 
- -t 1.024013608 -s 1 -d -1 -p AODV -e 106 -c 2 -a 0 -i 0 -k MAC
h -t 1.024013608 -s 1 -d -1 -p AODV -e 106 -c 2 -a 0 -i 0 -k MAC
r -t 1.024861941 -s 0 -d -1 -p AODV -e 48 -c 2 -a 0 -i 0 -k MAC
r -t 1.024862000 -s 2 -d -1 -p AODV -e 48 -c 2 -a 0 -i 0 -k MAC
r -t 1.024862208 -s 6 -d -1 -p AODV -e 48 -c 2 -a 0 -i 0 -k MAC
r -t 1.024862414 -s 5 -d -1 -p AODV -e 48 -c 2 -a 0 -i 0 -k MAC
r -t 1.024886941 -s 0 -d -1 -p AODV -e 48 -c 2 -a 0 -i 0 -k RTR
r -t 1.024887000 -s 2 -d -1 -p AODV -e 48 -c 2 -a 0 -i 0 -k RTR
r -t 1.024887208 -s 6 -d -1 -p AODV -e 48 -c 2 -a 0 -i 0 -k RTR
r -t 1.024887414 -s 5 -d -1 -p AODV -e 48 -c 2 -a 0 -i 0 -k RTR
+ -t 1.025111941 -s 0 -d -1 -p RTS -e 44 -c 2 -a 0 -i 0 -k MAC 
- -t 1.025111941 -s 0 -d -1 -p RTS -e 44 -c 2 -a 0 -i 0 -k MAC
h -t 1.025111941 -s 0 -d -1 -p RTS -e 44 -c 2 -a 0 -i 0 -k MAC
r -t 1.025464524 -s 5 -d -1 -p RTS -e 44 -c 2 -a 0 -i 0 -k MAC
+ -t 1.025474524 -s 5 -d -1 -p CTS -e 38 -c 2 -a 0 -i 0 -k MAC 
- -t 1.025474524 -s 5 -d -1 -p CTS -e 38 -c 2 -a 0 -i 0 -k MAC
h -t 1.025474524 -s 5 -d -1 -p CTS -e 38 -c 2 -a 0 -i 0 -k MAC
r -t 1.025779107 -s 0 -d -1 -p CTS -e 38 -c 2 -a 0 -i 0 -k MAC
+ -t 1.025789107 -s 0 -d 5 -p tcp -e 1058 -c 2 -a 0 -i 3 -k MAC 
- -t 1.025789107 -s 0 -d 5 -p tcp -e 1058 -c 2 -a 0 -i 3 -k MAC
h -t 1.025789107 -s 0 -d 5 -p tcp -e 1058 -c 2 -a 0 -i 3 -k MAC
+ -t 1.027668169 -s 8 -d -1 -p AODV -e 48 -c 2 -a 0 -i 0 -k RTR 
- -t 1.027668169 -s 8 -d -1 -p AODV -e 48 -c 2 -a 0 -i 0 -k RTR
h -t 1.027668169 -s 8 -d -1 -p AODV -e 48 -c 2 -a 0 -i 0 -k RTR
+ -t 1.029405366 -s 3 -d -1 -p AODV -e 48 -c 2 -a 0 -i 0 -k RTR 
- -t 1.029405366 -s 3 -d -1 -p AODV -e 48 -c 2 -a 0 -i 0 -k RTR
h -t 1.029405366 -s 3 -d -1 -p AODV -e 48 -c 2 -a 0 -i 0 -k RTR
r -t 1.034253690 -s 5 -d 5 -p tcp -e 1000 -c 2 -a 0 -i 3 -k MAC
+ -t 1.034263690 -s 5 -d -1 -p ACK -e 38 -c 2 -a 0 -i 0 -k MAC 
- -t 1.034263690 -s 5 -d -1 -p ACK -e 38 -c 2 -a 0 -i 0 -k MAC
h -t 1.034263690 -s 5 -d -1 -p ACK -e 38 -c 2 -a 0 -i 0 -k MAC
r -t 1.034278690 -s 5 -d 5 -p tcp -e 1000 -c 2 -a 0 -i 3 -k AGT
+ -t 1.034278690 -s 5 -d -1 -p ack -e 40 -c 2 -a 0 -i 4 -k AGT 
- -t 1.034278690 -s 5 -d -1 -p ack -e 40 -c 2 -a 0 -i 4 -k AGT
h -t 1.034278690 -s 5 -d -1 -p ack -e 40 -c 2 -a 0 -i 4 -k AGT
+ -t 1.034278690 -s 5 -d 0 -p ack -e 40 -c 2 -a 0 -i 4 -k RTR 
- -t 1.034278690 -s 5 -d 0 -p ack -e 40 -c 2 -a 0 -i 4 -k RTR
h -t 1.034278690 -s 5 -d 0 -p ack -e 40 -c 2 -a 0 -i 4 -k RTR
r -t 1.034568273 -s 0 -d -1 -p ACK -e 38 -c 2 -a 0 -i 0 -k MAC
+ -t 1.034717690 -s 5 -d -1 -p RTS -e 44 -c 2 -a 0 -i 0 -k MAC 
- -t 1.034717690 -s 5 -d -1 -p RTS -e 44 -c 2 -a 0 -i 0 -k MAC
h -t 1.034717690 -s 5 -d -1 -p RTS -e 44 -c 2 -a 0 -i 0 -k MAC
r -t 1.035070273 -s 0 -d -1 -p RTS -e 44 -c 2 -a 0 -i 0 -k MAC
+ -t 1.035080273 -s 0 -d -1 -p CTS -e 38 -c 2 -a 0 -i 0 -k MAC 
- -t 1.035080273 -s 0 -d -1 -p CTS -e 38 -c 2 -a 0 -i 0 -k MAC
h -t 1.035080273 -s 0 -d -1 -p CTS -e 38 -c 2 -a 0 -i 0 -k MAC
r -t 1.035384856 -s 5 -d -1 -p CTS -e 38 -c 2 -a 0 -i 0 -k MAC
+ -t 1.035394856 -s 5 -d 0 -p ack -e 98 -c 2 -a 0 -i 4 -k MAC 
- -t 1.035394856 -s 5 -d 0 -p ack -e 98 -c 2 -a 0 -i 4 -k MAC
h -t 1.035394856 -s 5 -d 0 -p ack -e 98 -c 2 -a 0 -i 4 -k MAC
r -t 1.036179439 -s 0 -d 0 -p ack -e 40 -c 2 -a 0 -i 4 -k MAC
+ -t 1.036189439 -s 0 -d -1 -p ACK -e 38 -c 2 -a 0 -i 0 -k MAC 
- -t 1.036189439 -s 0 -d -1 -p ACK -e 38 -c 2 -a 0 -i 0 -k MAC
h -t 1.036189439 -s 0 -d -1 -p ACK -e 38 -c 2 -a 0 -i 0 -k MAC
r -t 1.036204439 -s 0 -d 0 -p ack -e 40 -c 2 -a 0 -i 4 -k AGT
+ -t 1.036204439 -s 0 -d -1 -p tcp -e 1000 -c 2 -a 0 -i 5 -k AGT 
- -t 1.036204439 -s 0 -d -1 -p tcp -e 1000 -c 2 -a 0 -i 5 -k AGT
h -t 1.036204439 -s 0 -d -1 -p tcp -e 1000 -c 2 -a 0 -i 5 -k AGT
+ -t 1.036204439 -s 0 -d -1 -p tcp -e 1000 -c 2 -a 0 -i 6 -k AGT 
- -t 1.036204439 -s 0 -d -1 -p tcp -e 1000 -c 2 -a 0 -i 6 -k AGT
h -t 1.036204439 -s 0 -d -1 -p tcp -e 1000 -c 2 -a 0 -i 6 -k AGT
+ -t 1.036204439 -s 0 -d -1 -p tcp -e 1000 -c 2 -a 0 -i 7 -k AGT 
- -t 1.036204439 -s 0 -d -1 -p tcp -e 1000 -c 2 -a 0 -i 7 -k AGT
h -t 1.036204439 -s 0 -d -1 -p tcp -e 1000 -c 2 -a 0 -i 7 -k AGT
+ -t 1.036204439 -s 0 -d 5 -p tcp -e 1000 -c 2 -a 0 -i 5 -k RTR 
- -t 1.036204439 -s 0 -d 5 -p tcp -e 1000 -c 2 -a 0 -i 5 -k RTR
h -t 1.036204439 -s 0 -d 5 -p tcp -e 1000 -c 2 -a 0 -i 5 -k RTR
+ -t 1.036204439 -s 0 -d 5 -p tcp -e 1000 -c 2 -a 0 -i 6 -k RTR 
- -t 1.036204439 -s 0 -d 5 -p tcp -e 1000 -c 2 -a 0 -i 6 -k RTR
h -t 1.036204439 -s 0 -d 5 -p tcp -e 1000 -c 2 -a 0 -i 6 -k RTR
+ -t 1.036204439 -s 0 -d 5 -p tcp -e 1000 -c 2 -a 0 -i 7 -k RTR 
- -t 1.036204439 -s 0 -d 5 -p tcp -e 1000 -c 2 -a 0 -i 7 -k RTR
h -t 1.036204439 -s 0 -d 5 -p tcp -e 1000 -c 2 -a 0 -i 7 -k RTR
r -t 1.036494023 -s 5 -d -1 -p ACK -e 38 -c 2 -a 0 -i 0 -k MAC
+ -t 1.036754042 -s 2 -d -1 -p AODV -e 106 -c 2 -a 0 -i 0 -k MAC 
- -t 1.036754042 -s 2 -d -1 -p AODV -e 106 -c 2 -a 0 -i 0 -k MAC
h -t 1.036754042 -s 2 -d -1 -p AODV -e 106 -c 2 -a 0 -i 0 -k MAC
r -t 1.037602436 -s 1 -d -1 -p AODV -e 48 -c 2 -a 0 -i 0 -k MAC
r -t 1.037602680 -s 0 -d -1 -p AODV -e 48 -c 2 -a 0 -i 0 -k MAC
r -t 1.037627436 -s 1 -d -1 -p AODV -e 48 -c 2 -a 0 -i 0 -k RTR
r -t 1.037627680 -s 0 -d -1 -p AODV -e 48 -c 2 -a 0 -i 0 -k RTR
+ -t 1.037892680 -s 0 -d -1 -p RTS -e 44 -c 2 -a 0 -i 0 -k MAC 
- -t 1.037892680 -s 0 -d -1 -p RTS -e 44 -c 2 -a 0 -i 0 -k MAC
h -t 1.037892680 -s 0 -d -1 -p RTS -e 44 -c 2 -a 0 -i 0 -k MAC
r -t 1.038245513 -s 6 -d -1 -p RTS -e 44 -c 2 -a 0 -i 0 -k MAC
+ -t 1.038255513 -s 6 -d -1 -p CTS -e 38 -c 2 -a 0 -i 0 -k MAC 
- -t 1.038255513 -s 6 -d -1 -p CTS -e 38 -c 2 -a 0 -i 0 -k MAC
h -t 1.038255513 -s 6 -d -1 -p CTS -e 38 -c 2 -a 0 -i 0 -k MAC
r -t 1.038560346 -s 0 -d -1 -p CTS -e 38 -c 2 -a 0 -i 0 -k MAC
+ -t 1.038570346 -s 0 -d -1 -p ARP -e 86 -c 2 -a 0 -i 0 -k MAC 
- -t 1.038570346 -s 0 -d -1 -p ARP -e 86 -c 2 -a 0 -i 0 -k MAC
h -t 1.038570346 -s 0 -d -1 -p ARP -e 86 -c 2 -a 0 -i 0 -k MAC
r -t 1.039259180 -s 6 -d -1 -p ARP -e 28 -c 2 -a 0 -i 0 -k MAC
+ -t 1.039269180 -s 6 -d -1 -p ACK -e 38 -c 2 -a 0 -i 0 -k MAC 
- -t 1.039269180 -s 6 -d -1 -p ACK -e 38 -c 2 -a 0 -i 0 -k MAC
h -t 1.039269180 -s 6 -d -1 -p ACK -e 38 -c 2 -a 0 -i 0 -k MAC
r -t 1.039574013 -s 0 -d -1 -p ACK -e 38 -c 2 -a 0 -i 0 -k MAC
+ -t 1.039684013 -s 0 -d -1 -p RTS -e 44 -c 2 -a 0 -i 0 -k MAC 
- -t 1.039684013 -s 0 -d -1 -p RTS -e 44 -c 2 -a 0 -i 0 -k MAC
h -t 1.039684013 -s 0 -d -1 -p RTS -e 44 -c 2 -a 0 -i 0 -k MAC
r -t 1.040036596 -s 5 -d -1 -p RTS -e 44 -c 2 -a 0 -i 0 -k MAC
+ -t 1.040046596 -s 5 -d -1 -p CTS -e 38 -c 2 -a 0 -i 0 -k MAC 
- -t 1.040046596 -s 5 -d -1 -p CTS -e 38 -c 2 -a 0 -i 0 -k MAC
h -t 1.040046596 -s 5 -d -1 -p CTS -e 38 -c 2 -a 0 -i 0 -k MAC
r -t 1.040351179 -s 0 -d -1 -p CTS -e 38 -c 2 -a 0 -i 0 -k MAC
+ -t 1.040361179 -s 0 -d 5 -p tcp -e 1058 -c 2 -a 0 -i 5 -k MAC 
- -t 1.040361179 -s 0 -d 5 -p tcp -e 1058 -c 2 -a 0 -i 5 -k MAC
h -t 1.040361179 -s 0 -d 5 -p tcp -e 1058 -c 2 -a 0 -i 5 -k MAC
r -t 1.048825762 -s 5 -d 5 -p tcp -e 1000 -c 2 -a 0 -i 5 -k MAC
+ -t 1.048835762 -s 5 -d -1 -p ACK -e 38 -c 2 -a 0 -i 0 -k MAC 
- -t 1.048835762 -s 5 -d -1 -p ACK -e 38 -c 2 -a 0 -i 0 -k MAC
h -t 1.048835762 -s 5 -d -1 -p ACK -e 38 -c 2 -a 0 -i 0 -k MAC
r -t 1.048850762 -s 5 -d 5 -p tcp -e 1000 -c 2 -a 0 -i 5 -k AGT
+ -t 1.048850762 -s 5 -d -1 -p ack -e 40 -c 2 -a 0 -i 8 -k AGT 
- -t 1.048850762 -s 5 -d -1 -p ack -e 40 -c 2 -a 0 -i 8 -k AGT
h -t 1.048850762 -s 5 -d -1 -p ack -e 40 -c 2 -a 0 -i 8 -k AGT
+ -t 1.048850762 -s 5 -d 0 -p ack -e 40 -c 2 -a 0 -i 8 -k RTR 
- -t 1.048850762 -s 5 -d 0 -p ack -e 40 -c 2 -a 0 -i 8 -k RTR
h -t 1.048850762 -s 5 -d 0 -p ack -e 40 -c 2 -a 0 -i 8 -k RTR
r -t 1.049140345 -s 0 -d -1 -p ACK -e 38 -c 2 -a 0 -i 0 -k MAC
+ -t 1.049209762 -s 5 -d -1 -p RTS -e 44 -c 2 -a 0 -i 0 -k MAC 
- -t 1.049209762 -s 5 -d -1 -p RTS -e 44 -c 2 -a 0 -i 0 -k MAC
h -t 1.049209762 -s 5 -d -1 -p RTS -e 44 -c 2 -a 0 -i 0 -k MAC
r -t 1.049562345 -s 0 -d -1 -p RTS -e 44 -c 2 -a 0 -i 0 -k MAC
+ -t 1.049572345 -s 0 -d -1 -p CTS -e 38 -c 2 -a 0 -i 0 -k MAC 
- -t 1.049572345 -s 0 -d -1 -p CTS -e 38 -c 2 -a 0 -i 0 -k MAC
h -t 1.049572345 -s 0 -d -1 -p CTS -e 38 -c 2 -a 0 -i 0 -k MAC
r -t 1.049876929 -s 5 -d -1 -p CTS -e 38 -c 2 -a 0 -i 0 -k MAC
+ -t 1.049886929 -s 5 -d 0 -p ack -e 98 -c 2 -a 0 -i 8 -k MAC 
- -t 1.049886929 -s 5 -d 0 -p ack -e 98 -c 2 -a 0 -i 8 -k MAC
h -t 1.049886929 -s 5 -d 0 -p ack -e 98 -c 2 -a 0 -i 8 -k MAC
r -t 1.050671512 -s 0 -d 0 -p ack -e 40 -c 2 -a 0 -i 8 -k MAC
+ -t 1.050681512 -s 0 -d -1 -p ACK -e 38 -c 2 -a 0 -i 0 -k MAC 
- -t 1.050681512 -s 0 -d -1 -p ACK -e 38 -c 2 -a 0 -i 0 -k MAC
h -t 1.050681512 -s 0 -d -1 -p ACK -e 38 -c 2 -a 0 -i 0 -k MAC
r -t 1.050696512 -s 0 -d 0 -p ack -e 40 -c 2 -a 0 -i 8 -k AGT
+ -t 1.050696512 -s 0 -d -1 -p tcp -e 1000 -c 2 -a 0 -i 9 -k AGT 
- -t 1.050696512 -s 0 -d -1 -p tcp -e 1000 -c 2 -a 0 -i 9 -k AGT
h -t 1.050696512 -s 0 -d -1 -p tcp -e 1000 -c 2 -a 0 -i 9 -k AGT
+ -t 1.050696512 -s 0 -d 5 -p tcp -e 1000 -c 2 -a 0 -i 9 -k RTR 
- -t 1.050696512 -s 0 -d 5 -p tcp -e 1000 -c 2 -a 0 -i 9 -k RTR
h -t 1.050696512 -s 0 -d 5 -p tcp -e 1000 -c 2 -a 0 -i 9 -k RTR
r -t 1.050986095 -s 5 -d -1 -p ACK -e 38 -c 2 -a 0 -i 0 -k MAC
+ -t 1.051155512 -s 0 -d -1 -p RTS -e 44 -c 2 -a 0 -i 0 -k MAC 
- -t 1.051155512 -s 0 -d -1 -p RTS -e 44 -c 2 -a 0 -i 0 -k MAC
h -t 1.051155512 -s 0 -d -1 -p RTS -e 44 -c 2 -a 0 -i 0 -k MAC
r -t 1.051508095 -s 5 -d -1 -p RTS -e 44 -c 2 -a 0 -i 0 -k MAC
+ -t 1.051518095 -s 5 -d -1 -p CTS -e 38 -c 2 -a 0 -i 0 -k MAC 
- -t 1.051518095 -s 5 -d -1 -p CTS -e 38 -c 2 -a 0 -i 0 -k MAC
h -t 1.051518095 -s 5 -d -1 -p CTS -e 38 -c 2 -a 0 -i 0 -k MAC
r -t 1.051822678 -s 0 -d -1 -p CTS -e 38 -c 2 -a 0 -i 0 -k MAC
+ -t 1.051832678 -s 0 -d 5 -p tcp -e 1058 -c 2 -a 0 -i 6 -k MAC 
- -t 1.051832678 -s 0 -d 5 -p tcp -e 1058 -c 2 -a 0 -i 6 -k MAC
h -t 1.051832678 -s 0 -d 5 -p tcp -e 1058 -c 2 -a 0 -i 6 -k MAC
r -t 1.060297261 -s 5 -d 5 -p tcp -e 1000 -c 2 -a 0 -i 6 -k MAC
+ -t 1.060307261 -s 5 -d -1 -p ACK -e 38 -c 2 -a 0 -i 0 -k MAC 
- -t 1.060307261 -s 5 -d -1 -p ACK -e 38 -c 2 -a 0 -i 0 -k MAC
h -t 1.060307261 -s 5 -d -1 -p ACK -e 38 -c 2 -a 0 -i 0 -k MAC
r -t 1.060322261 -s 5 -d 5 -p tcp -e 1000 -c 2 -a 0 -i 6 -k AGT
+ -t 1.060322261 -s 5 -d -1 -p ack -e 40 -c 2 -a 0 -i 10 -k AGT 
- -t 1.060322261 -s 5 -d -1 -p ack -e 40 -c 2 -a 0 -i 10 -k AGT
h -t 1.060322261 -s 5 -d -1 -p ack -e 40 -c 2 -a 0 -i 10 -k AGT
+ -t 1.060322261 -s 5 -d 0 -p ack -e 40 -c 2 -a 0 -i 10 -k RTR 
- -t 1.060322261 -s 5 -d 0 -p ack -e 40 -c 2 -a 0 -i 10 -k RTR
h -t 1.060322261 -s 5 -d 0 -p ack -e 40 -c 2 -a 0 -i 10 -k RTR
r -t 1.060611844 -s 0 -d -1 -p ACK -e 38 -c 2 -a 0 -i 0 -k MAC
+ -t 1.060831512 -s 3 -d -1 -p AODV -e 106 -c 2 -a 0 -i 0 -k MAC 
- -t 1.060831512 -s 3 -d -1 -p AODV -e 106 -c 2 -a 0 -i 0 -k MAC
h -t 1.060831512 -s 3 -d -1 -p AODV -e 106 -c 2 -a 0 -i 0 -k MAC
r -t 1.061679939 -s 5 -d -1 -p AODV -e 48 -c 2 -a 0 -i 0 -k MAC
r -t 1.061680212 -s 4 -d -1 -p AODV -e 48 -c 2 -a 0 -i 0 -k MAC
r -t 1.061680287 -s 6 -d -1 -p AODV -e 48 -c 2 -a 0 -i 0 -k MAC
r -t 1.061704939 -s 5 -d -1 -p AODV -e 48 -c 2 -a 0 -i 0 -k RTR
r -t 1.061705212 -s 4 -d -1 -p AODV -e 48 -c 2 -a 0 -i 0 -k RTR
r -t 1.061705287 -s 6 -d -1 -p AODV -e 48 -c 2 -a 0 -i 0 -k RTR
+ -t 1.061809939 -s 5 -d -1 -p RTS -e 44 -c 2 -a 0 -i 0 -k MAC 
- -t 1.061809939 -s 5 -d -1 -p RTS -e 44 -c 2 -a 0 -i 0 -k MAC
h -t 1.061809939 -s 5 -d -1 -p RTS -e 44 -c 2 -a 0 -i 0 -k MAC
r -t 1.062162522 -s 0 -d -1 -p RTS -e 44 -c 2 -a 0 -i 0 -k MAC
+ -t 1.062172522 -s 0 -d -1 -p CTS -e 38 -c 2 -a 0 -i 0 -k MAC 
- -t 1.062172522 -s 0 -d -1 -p CTS -e 38 -c 2 -a 0 -i 0 -k MAC
h -t 1.062172522 -s 0 -d -1 -p CTS -e 38 -c 2 -a 0 -i 0 -k MAC
r -t 1.062477105 -s 5 -d -1 -p CTS -e 38 -c 2 -a 0 -i 0 -k MAC
+ -t 1.062487105 -s 5 -d 0 -p ack -e 98 -c 2 -a 0 -i 10 -k MAC 
- -t 1.062487105 -s 5 -d 0 -p ack -e 98 -c 2 -a 0 -i 10 -k MAC
h -t 1.062487105 -s 5 -d 0 -p ack -e 98 -c 2 -a 0 -i 10 -k MAC
r -t 1.063271688 -s 0 -d 0 -p ack -e 40 -c 2 -a 0 -i 10 -k MAC
+ -t 1.063281688 -s 0 -d -1 -p ACK -e 38 -c 2 -a 0 -i 0 -k MAC 
- -t 1.063281688 -s 0 -d -1 -p ACK -e 38 -c 2 -a 0 -i 0 -k MAC
h -t 1.063281688 -s 0 -d -1 -p ACK -e 38 -c 2 -a 0 -i 0 -k MAC
r -t 1.063296688 -s 0 -d 0 -p ack -e 40 -c 2 -a 0 -i 10 -k AGT
+ -t 1.063296688 -s 0 -d -1 -p tcp -e 1000 -c 2 -a 0 -i 11 -k AGT 
- -t 1.063296688 -s 0 -d -1 -p tcp -e 1000 -c 2 -a 0 -i 11 -k AGT
h -t 1.063296688 -s 0 -d -1 -p tcp -e 1000 -c 2 -a 0 -i 11 -k AGT
+ -t 1.063296688 -s 0 -d 5 -p tcp -e 1000 -c 2 -a 0 -i 11 -k RTR 
- -t 1.063296688 -s 0 -d 5 -p tcp -e 1000 -c 2 -a 0 -i 11 -k RTR
h -t 1.063296688 -s 0 -d 5 -p tcp -e 1000 -c 2 -a 0 -i 11 -k RTR
r -t 1.063586271 -s 5 -d -1 -p ACK -e 38 -c 2 -a 0 -i 0 -k MAC
+ -t 1.063975688 -s 0 -d -1 -p RTS -e 44 -c 2 -a 0 -i 0 -k MAC 
- -t 1.063975688 -s 0 -d -1 -p RTS -e 44 -c 2 -a 0 -i 0 -k MAC
h -t 1.063975688 -s 0 -d -1 -p RTS -e 44 -c 2 -a 0 -i 0 -k MAC
r -t 1.064328271 -s 5 -d -1 -p RTS -e 44 -c 2 -a 0 -i 0 -k MAC
+ -t 1.064338271 -s 5 -d -1 -p CTS -e 38 -c 2 -a 0 -i 0 -k MAC 
- -t 1.064338271 -s 5 -d -1 -p CTS -e 38 -c 2 -a 0 -i 0 -k MAC
h -t 1.064338271 -s 5 -d -1 -p CTS -e 38 -c 2 -a 0 -i 0 -k MAC
r -t 1.064642854 -s 0 -d -1 -p CTS -e 38 -c 2 -a 0 -i 0 -k MAC
+ -t 1.064652854 -s 0 -d 5 -p tcp -e 1058 -c 2 -a 0 -i 7 -k MAC 
- -t 1.064652854 -s 0 -d 5 -p tcp -e 1058 -c 2 -a 0 -i 7 -k MAC
h -t 1.064652854 -s 0 -d 5 -p tcp -e 1058 -c 2 -a 0 -i 7 -k MAC
r -t 1.073117437 -s 5 -d 5 -p tcp -e 1000 -c 2 -a 0 -i 7 -k MAC
+ -t 1.073127437 -s 5 -d -1 -p ACK -e 38 -c 2 -a 0 -i 0 -k MAC 
- -t 1.073127437 -s 5 -d -1 -p ACK -e 38 -c 2 -a 0 -i 0 -k MAC
h -t 1.073127437 -s 5 -d -1 -p ACK -e 38 -c 2 -a 0 -i 0 -k MAC
r -t 1.073142437 -s 5 -d 5 -p tcp -e 1000 -c 2 -a 0 -i 7 -k AGT
+ -t 1.073142437 -s 5 -d -1 -p ack -e 40 -c 2 -a 0 -i 12 -k AGT 
- -t 1.073142437 -s 5 -d -1 -p ack -e 40 -c 2 -a 0 -i 12 -k AGT
h -t 1.073142437 -s 5 -d -1 -p ack -e 40 -c 2 -a 0 -i 12 -k AGT
+ -t 1.073142437 -s 5 -d 0 -p ack -e 40 -c 2 -a 0 -i 12 -k RTR 
- -t 1.073142437 -s 5 -d 0 -p ack -e 40 -c 2 -a 0 -i 12 -k RTR
h -t 1.073142437 -s 5 -d 0 -p ack -e 40 -c 2 -a 0 -i 12 -k RTR
r -t 1.073432020 -s 0 -d -1 -p ACK -e 38 -c 2 -a 0 -i 0 -k MAC
+ -t 1.073571859 -s 8 -d -1 -p AODV -e 106 -c 2 -a 0 -i 0 -k MAC 
- -t 1.073571859 -s 8 -d -1 -p AODV -e 106 -c 2 -a 0 -i 0 -k MAC
h -t 1.073571859 -s 8 -d -1 -p AODV -e 106 -c 2 -a 0 -i 0 -k MAC
r -t 1.074420665 -s 5 -d -1 -p AODV -e 48 -c 2 -a 0 -i 0 -k MAC
r -t 1.074445665 -s 5 -d -1 -p AODV -e 48 -c 2 -a 0 -i 0 -k RTR
+ -t 1.074670665 -s 5 -d -1 -p RTS -e 44 -c 2 -a 0 -i 0 -k MAC 
- -t 1.074670665 -s 5 -d -1 -p RTS -e 44 -c 2 -a 0 -i 0 -k MAC
h -t 1.074670665 -s 5 -d -1 -p RTS -e 44 -c 2 -a 0 -i 0 -k MAC
r -t 1.075023248 -s 0 -d -1 -p RTS -e 44 -c 2 -a 0 -i 0 -k MAC
+ -t 1.075033248 -s 0 -d -1 -p CTS -e 38 -c 2 -a 0 -i 0 -k MAC 
- -t 1.075033248 -s 0 -d -1 -p CTS -e 38 -c 2 -a 0 -i 0 -k MAC
h -t 1.075033248 -s 0 -d -1 -p CTS -e 38 -c 2 -a 0 -i 0 -k MAC
r -t 1.075337832 -s 5 -d -1 -p CTS -e 38 -c 2 -a 0 -i 0 -k MAC
+ -t 1.075347832 -s 5 -d 0 -p ack -e 98 -c 2 -a 0 -i 12 -k MAC 
- -t 1.075347832 -s 5 -d 0 -p ack -e 98 -c 2 -a 0 -i 12 -k MAC
h -t 1.075347832 -s 5 -d 0 -p ack -e 98 -c 2 -a 0 -i 12 -k MAC
r -t 1.076132415 -s 0 -d 0 -p ack -e 40 -c 2 -a 0 -i 12 -k MAC
+ -t 1.076142415 -s 0 -d -1 -p ACK -e 38 -c 2 -a 0 -i 0 -k MAC 
- -t 1.076142415 -s 0 -d -1 -p ACK -e 38 -c 2 -a 0 -i 0 -k MAC
h -t 1.076142415 -s 0 -d -1 -p ACK -e 38 -c 2 -a 0 -i 0 -k MAC
r -t 1.076157415 -s 0 -d 0 -p ack -e 40 -c 2 -a 0 -i 12 -k AGT
+ -t 1.076157415 -s 0 -d -1 -p tcp -e 1000 -c 2 -a 0 -i 13 -k AGT 
- -t 1.076157415 -s 0 -d -1 -p tcp -e 1000 -c 2 -a 0 -i 13 -k AGT