M 1.00000 0 (-110.00, 350.00, 0.00), (70.00, 50.00), 0.00
M 1.00000 1 (-10.00, 350.00, 0.00), (20.00, 30.00), 0.00
M 1.00000 2 (50.00, 450.00, 0.00), (200.00, 450.00), 85.00
M 1.00000 3 (-120.00, 100.00, 0.00), (40.00, 100.00), 0.00
M 1.00000 4 (90.00, 100.00, 0.00), (30.00, 45.00), 0.00
M 1.00000 5 (-200.00, 200.00, 0.00), (80.00, 200.00), 0.00
M 1.00000 6 (90.00, 200.00, 0.00), (50.00, 350.00), 0.00
M 1.00000 7 (400.00, 100.00, 0.00), (300.00, 145.00), 0.00
M 1.00000 8 (-410.00, 320.00, 0.00), (110.00, 230.00), 0.00
M 1.00000 9 (280.00, -140.00, 0.00), (250.00, 50.00), 0.00
s 1.000000000 _0_ AGT  --- 0 tcp 40 [0 0 0 0] ------- [0:0 5:0 32 0] [0 0] 0 0
r 1.000000000 _0_ RTR  --- 0 tcp 40 [0 0 0 0] ------- [0:0 5:0 32 0] [0 0] 0 0
s 1.000000000 _2_ AGT  --- 1 tcp 40 [0 0 0 0] ------- [2:0 6:0 32 0] [0 0] 0 0
r 1.000000000 _2_ RTR  --- 1 tcp 40 [0 0 0 0] ------- [2:0 6:0 32 0] [0 0] 0 0
s 1.000000000 _0_ RTR  --- 0 AODV 48 [0 0 0 0] ------- [0:255 -1:255 30 0] [0x2 1 1 [5 0] [0 4]] (REQUEST)
s 1.000000000 _2_ RTR  --- 0 AODV 48 [0 0 0 0] ------- [2:255 -1:255 30 0] [0x2 1 1 [6 0] [2 4]] (REQUEST)
s 1.000375000 _2_ MAC  --- 0 AODV 106 [0 ffffffff 2 800] ------- [2:255 -1:255 30 0] [0x2 1 1 [6 0] [2 4]] (REQUEST)
r 1.001223389 _1_ MAC  --- 0 AODV 48 [0 ffffffff 2 800] ------- [2:255 -1:255 30 0] [0x2 1 1 [6 0] [2 4]] (REQUEST)
r 1.001223629 _0_ MAC  --- 0 AODV 48 [0 ffffffff 2 800] ------- [2:255 -1:255 30 0] [0x2 1 1 [6 0] [2 4]] (REQUEST)
r 1.001248389 _1_ RTR  --- 0 AODV 48 [0 ffffffff 2 800] ------- [2:255 -1:255 30 0] [0x2 1 1 [6 0] [2 4]] (REQUEST)
r 1.001248629 _0_ RTR  --- 0 AODV 48 [0 ffffffff 2 800] ------- [2:255 -1:255 30 0] [0x2 1 1 [6 0] [2 4]] (REQUEST)
s 1.001533629 _0_ MAC  --- 0 AODV 106 [0 ffffffff 0 800] ------- [0:255 -1:255 30 0] [0x2 1 1 [5 0] [0 4]] (REQUEST)
r 1.002381962 _1_ MAC  --- 0 AODV 48 [0 ffffffff 0 800] ------- [0:255 -1:255 30 0] [0x2 1 1 [5 0] [0 4]] (REQUEST)
r 1.002382212 _5_ MAC  --- 0 AODV 48 [0 ffffffff 0 800] ------- [0:255 -1:255 30 0] [0x2 1 1 [5 0] [0 4]] (REQUEST)
r 1.002382258 _2_ MAC  --- 0 AODV 48 [0 ffffffff 0 800] ------- [0:255 -1:255 30 0] [0x2 1 1 [5 0] [0 4]] (REQUEST)
r 1.002382462 _6_ MAC  --- 0 AODV 48 [0 ffffffff 0 800] ------- [0:255 -1:255 30 0] [0x2 1 1 [5 0] [0 4]] (REQUEST)
r 1.002406962 _1_ RTR  --- 0 AODV 48 [0 ffffffff 0 800] ------- [0:255 -1:255 30 0] [0x2 1 1 [5 0] [0 4]] (REQUEST)
r 1.002407212 _5_ RTR  --- 0 AODV 48 [0 ffffffff 0 800] ------- [0:255 -1:255 30 0] [0x2 1 1 [5 0] [0 4]] (REQUEST)
s 1.002407212 _5_ RTR  --- 0 AODV 44 [0 0 0 0] ------- [5:255 0:255 30 0] [0x4 1 [5 4] 10.000000] (REPLY)
r 1.002407258 _2_ RTR  --- 0 AODV 48 [0 ffffffff 0 800] ------- [0:255 -1:255 30 0] [0x2 1 1 [5 0] [0 4]] (REQUEST)
r 1.002407462 _6_ RTR  --- 0 AODV 48 [0 ffffffff 0 800] ------- [0:255 -1:255 30 0] [0x2 1 1 [5 0] [0 4]] (REQUEST)
s 1.002702212 _5_ MAC  --- 0 ARP 86 [0 ffffffff 5 806] ------- [REQUEST 5/5 0/0]
r 1.003390639 _3_ MAC  --- 0 ARP 28 [0 ffffffff 5 806] ------- [REQUEST 5/5 0/0]
r 1.003390795 _0_ MAC  --- 0 ARP 28 [0 ffffffff 5 806] ------- [REQUEST 5/5 0/0]
r 1.003391018 _8_ MAC  --- 0 ARP 28 [0 ffffffff 5 806] ------- [REQUEST 5/5 0/0]
r 1.003391019 _1_ MAC  --- 0 ARP 28 [0 ffffffff 5 806] ------- [REQUEST 5/5 0/0]
s 1.003985795 _0_ MAC  --- 0 RTS 44 [52e 5 0 0] 
r 1.004338378 _5_ MAC  --- 0 RTS 44 [52e 5 0 0] 
s 1.004348378 _5_ MAC  --- 0 CTS 38 [3f4 0 0 0] 
s 1.004378247 _0_ RTR  --- 0 AODV 48 [0 ffffffff 2 800] ------- [0:255 -1:255 29 0] [0x2 2 1 [6 0] [2 4]] (REQUEST)
r 1.004652961 _0_ MAC  --- 0 CTS 38 [3f4 0 0 0] 
s 1.004662961 _0_ MAC  --- 0 ARP 86 [13a 5 0 806] ------- [REPLY 0/0 5/5]
s 1.004752980 _1_ RTR  --- 0 AODV 48 [0 ffffffff 0 800] ------- [1:255 -1:255 29 0] [0x2 2 1 [5 0] [0 4]] (REQUEST)
r 1.005351544 _5_ MAC  --- 0 ARP 28 [13a 5 0 806] ------- [REPLY 0/0 5/5]
s 1.005361544 _5_ MAC  --- 0 ACK 38 [0 0 0 0] 
s 1.005498253 _6_ RTR  --- 0 AODV 48 [0 ffffffff 0 800] ------- [6:255 -1:255 29 0] [0x2 2 1 [5 0] [0 4]] (REQUEST)
r 1.005666128 _0_ MAC  --- 0 ACK 38 [0 0 0 0] 
s 1.005876128 _0_ MAC  --- 0 AODV 106 [0 ffffffff 0 800] ------- [0:255 -1:255 29 0] [0x2 2 1 [6 0] [2 4]] (REQUEST)
s 1.005876351 _1_ MAC  --- 0 AODV 106 [0 ffffffff 1 800] ------- [1:255 -1:255 29 0] [0x2 2 1 [5 0] [0 4]] (REQUEST)
D 1.005876758 _2_ MAC  COL 0 AODV 106 [0 ffffffff 1 800] ------- [1:255 -1:255 29 0] [0x2 2 1 [5 0] [0 4]] (REQUEST)
D 1.005876961 _6_ MAC  COL 0 AODV 106 [0 ffffffff 1 800] ------- [1:255 -1:255 29 0] [0x2 2 1 [5 0] [0 4]] (REQUEST)
D 1.005877158 _5_ MAC  COL 0 AODV 106 [0 ffffffff 0 800] ------- [0:255 -1:255 29 0] [0x2 2 1 [6 0] [2 4]] (REQUEST)
D 1.006724758 _2_ MAC  COL 0 AODV 106 [0 ffffffff 0 800] ------- [0:255 -1:255 29 0] [0x2 2 1 [6 0] [2 4]] (REQUEST)
D 1.006724961 _6_ MAC  COL 0 AODV 106 [0 ffffffff 0 800] ------- [0:255 -1:255 29 0] [0x2 2 1 [6 0] [2 4]] (REQUEST)
D 1.006725158 _5_ MAC  COL 0 AODV 106 [0 ffffffff 1 800] ------- [1:255 -1:255 29 0] [0x2 2 1 [5 0] [0 4]] (REQUEST)
s 1.007219158 _5_ MAC  --- 0 RTS 44 [5ae 0 5 0] 
r 1.007571741 _0_ MAC  --- 0 RTS 44 [5ae 0 5 0] 
s 1.007581741 _0_ MAC  --- 0 CTS 38 [474 5 0 0] 
r 1.007886325 _5_ MAC  --- 0 CTS 38 [474 5 0 0] 
s 1.007896325 _5_ MAC  --- 0 AODV 102 [13a 0 5 800] ------- [5:255 0:255 30 0] [0x4 1 [5 4] 10.000000] (REPLY)
r 1.008712908 _0_ MAC  --- 0 AODV 44 [13a 0 5 800] ------- [5:255 0:255 30 0] [0x4 1 [5 4] 10.000000] (REPLY)
s 1.008722908 _0_ MAC  --- 0 ACK 38 [0 5 0 0] 
r 1.008737908 _0_ RTR  --- 0 AODV 44 [13a 0 5 800] ------- [5:255 0:255 30 0] [0x4 1 [5 4] 10.000000] (REPLY)
s 1.008737908 _0_ RTR  --- 0 tcp 40 [0 0 0 0] ------- [0:0 5:0 30 5] [0 0] 0 0
s 1.008795910 _2_ RTR  --- 0 AODV 48 [0 ffffffff 0 800] ------- [2:255 -1:255 29 0] [0x2 2 1 [5 0] [0 4]] (REQUEST)
r 1.009027491 _5_ MAC  --- 0 ACK 38 [0 5 0 0] 
s 1.009239943 _1_ RTR  --- 0 AODV 48 [0 ffffffff 2 800] ------- [1:255 -1:255 29 0] [0x2 2 1 [6 0] [2 4]] (REQUEST)
s 1.009337241 _1_ MAC  --- 0 AODV 106 [0 ffffffff 1 800] ------- [1:255 -1:255 29 0] [0x2 2 1 [6 0] [2 4]] (REQUEST)
r 1.010185574 _0_ MAC  --- 0 AODV 48 [0 ffffffff 1 800] ------- [1:255 -1:255 29 0] [0x2 2 1 [6 0] [2 4]] (REQUEST)
r 1.010185631 _2_ MAC  --- 0 AODV 48 [0 ffffffff 1 800] ------- [1:255 -1:255 29 0] [0x2 2 1 [6 0] [2 4]] (REQUEST)
r 1.010185842 _6_ MAC  --- 0 AODV 48 [0 ffffffff 1 800] ------- [1:255 -1:255 29 0] [0x2 2 1 [6 0] [2 4]] (REQUEST)
r 1.010186048 _5_ MAC  --- 0 AODV 48 [0 ffffffff 1 800] ------- [1:255 -1:255 29 0] [0x2 2 1 [6 0] [2 4]] (REQUEST)
r 1.010210574 _0_ RTR  --- 0 AODV 48 [0 ffffffff 1 800] ------- [1:255 -1:255 29 0] [0x2 2 1 [6 0] [2 4]] (REQUEST)
r 1.010210631 _2_ RTR  --- 0 AODV 48 [0 ffffffff 1 800] ------- [1:255 -1:255 29 0] [0x2 2 1 [6 0] [2 4]] (REQUEST)
r 1.010210842 _6_ RTR  --- 0 AODV 48 [0 ffffffff 1 800] ------- [1:255 -1:255 29 0] [0x2 2 1 [6 0] [2 4]] (REQUEST)
s 1.010210842 _6_ RTR  --- 0 AODV 44 [0 0 0 0] ------- [6:255 2:255 30 1] [0x4 1 [6 4] 10.000000] (REPLY)
r 1.010211048 _5_ RTR  --- 0 AODV 48 [0 ffffffff 1 800] ------- [1:255 -1:255 29 0] [0x2 2 1 [6 0] [2 4]] (REQUEST)
s 1.010315842 _6_ MAC  --- 0 AODV 106 [0 ffffffff 6 800] ------- [6:255 -1:255 29 0] [0x2 2 1 [5 0] [0 4]] (REQUEST)
r 1.011164175 _4_ MAC  --- 0 AODV 48 [0 ffffffff 6 800] ------- [6:255 -1:255 29 0] [0x2 2 1 [5 0] [0 4]] (REQUEST)
r 1.011164443 _1_ MAC  --- 0 AODV 48 [0 ffffffff 6 800] ------- [6:255 -1:255 29 0] [0x2 2 1 [5 0] [0 4]] (REQUEST)
r 1.011164617 _3_ MAC  --- 0 AODV 48 [0 ffffffff 6 800] ------- [6:255 -1:255 29 0] [0x2 2 1 [5 0] [0 4]] (REQUEST)
r 1.011164675 _0_ MAC  --- 0 AODV 48 [0 ffffffff 6 800] ------- [6:255 -1:255 29 0] [0x2 2 1 [5 0] [0 4]] (REQUEST)
r 1.011189175 _4_ RTR  --- 0 AODV 48 [0 ffffffff 6 800] ------- [6:255 -1:255 29 0] [0x2 2 1 [5 0] [0 4]] (REQUEST)
r 1.011189443 _1_ RTR  --- 0 AODV 48 [0 ffffffff 6 800] ------- [6:255 -1:255 29 0] [0x2 2 1 [5 0] [0 4]] (REQUEST)
r 1.011189617 _3_ RTR  --- 0 AODV 48 [0 ffffffff 6 800] ------- [6:255 -1:255 29 0] [0x2 2 1 [5 0] [0 4]] (REQUEST)
r 1.011189675 _0_ RTR  --- 0 AODV 48 [0 ffffffff 6 800] ------- [6:255 -1:255 29 0] [0x2 2 1 [5 0] [0 4]] (REQUEST)
s 1.011274675 _0_ MAC  --- 0 RTS 44 [58e 5 0 0] 
r 1.011627258 _5_ MAC  --- 0 RTS 44 [58e 5 0 0] 
s 1.011637258 _5_ MAC  --- 0 CTS 38 [454 0 0 0] 
r 1.011941841 _0_ MAC  --- 0 CTS 38 [454 0 0 0] 
s 1.011951841 _0_ MAC  --- 0 tcp 98 [13a 5 0 800] ------- [0:0 5:0 30 5] [0 0] 0 0
r 1.012736424 _5_ MAC  --- 0 tcp 40 [13a 5 0 800] ------- [0:0 5:0 30 5] [0 0] 1 0
s 1.012746424 _5_ MAC  --- 0 ACK 38 [0 0 0 0] 
r 1.012761424 _5_ AGT  --- 0 tcp 40 [13a 5 0 800] ------- [0:0 5:0 30 5] [0 0] 1 0
s 1.012761424 _5_ AGT  --- 2 ack 40 [0 0 0 0] ------- [5:0 0:0 32 0] [0 0] 0 0
r 1.012761424 _5_ RTR  --- 2 ack 40 [0 0 0 0] ------- [5:0 0:0 32 0] [0 0] 0 0
s 1.012761424 _5_ RTR  --- 2 ack 40 [0 0 0 0] ------- [5:0 0:0 30 0] [0 0] 0 0
r 1.013051008 _0_ MAC  --- 0 ACK 38 [0 0 0 0] 
s 1.013505606 _2_ MAC  --- 0 AODV 106 [0 ffffffff 2 800] ------- [2:255 -1:255 29 0] [0x2 2 1 [5 0] [0 4]] (REQUEST)
s 1.014297905 _5_ RTR  --- 0 AODV 48 [0 ffffffff 1 800] ------- [5:255 -1:255 28 0] [0x2 3 1 [6 0] [2 4]] (REQUEST)
r 1.014353996 _1_ MAC  --- 0 AODV 48 [0 ffffffff 2 800] ------- [2:255 -1:255 29 0] [0x2 2 1 [5 0] [0 4]] (REQUEST)
r 1.014354238 _0_ MAC  --- 0 AODV 48 [0 ffffffff 2 800] ------- [2:255 -1:255 29 0] [0x2 2 1 [5 0] [0 4]] (REQUEST)
r 1.014378996 _1_ RTR  --- 0 AODV 48 [0 ffffffff 2 800] ------- [2:255 -1:255 29 0] [0x2 2 1 [5 0] [0 4]] (REQUEST)
r 1.014379238 _0_ RTR  --- 0 AODV 48 [0 ffffffff 2 800] ------- [2:255 -1:255 29 0] [0x2 2 1 [5 0] [0 4]] (REQUEST)
s 1.014908449 _6_ MAC  --- 0 ARP 86 [0 ffffffff 6 806] ------- [REQUEST 6/6 0/1]
r 1.015596782 _4_ MAC  --- 0 ARP 28 [0 ffffffff 6 806] ------- [REQUEST 6/6 0/1]
r 1.015597050 _1_ MAC  --- 0 ARP 28 [0 ffffffff 6 806] ------- [REQUEST 6/6 0/1]
r 1.015597224 _3_ MAC  --- 0 ARP 28 [0 ffffffff 6 806] ------- [REQUEST 6/6 0/1]
r 1.015597282 _0_ MAC  --- 0 ARP 28 [0 ffffffff 6 806] ------- [REQUEST 6/6 0/1]
s 1.015692050 _1_ MAC  --- 0 RTS 44 [52e 6 1 0] 
s 1.015850335 _4_ RTR  --- 0 AODV 48 [0 ffffffff 6 800] ------- [4:255 -1:255 28 0] [0x2 3 1 [5 0] [0 4]] (REQUEST)
r 1.016044651 _6_ MAC  --- 0 RTS 44 [52e 6 1 0] 
s 1.016054651 _6_ MAC  --- 0 CTS 38 [3f4 1 0 0] 
r 1.016359252 _1_ MAC  --- 0 CTS 38 [3f4 1 0 0] 
s 1.016369252 _1_ MAC  --- 0 ARP 86 [13a 6 1 806] ------- [REPLY 1/1 6/6]
r 1.017057853 _6_ MAC  --- 0 ARP 28 [13a 6 1 806] ------- [REPLY 1/1 6/6]
s 1.017067853 _6_ MAC  --- 0 ACK 38 [0 1 0 0] 
r 1.017372454 _1_ MAC  --- 0 ACK 38 [0 1 0 0] 
s 1.017741853 _6_ MAC  --- 0 RTS 44 [5ae 1 6 0] 
r 1.018094454 _1_ MAC  --- 0 RTS 44 [5ae 1 6 0] 
s 1.018104454 _1_ MAC  --- 0 CTS 38 [474 6 0 0] 
s 1.018112686 _3_ RTR  --- 0 AODV 48 [0 ffffffff 6 800] ------- [3:255 -1:255 28 0] [0x2 3 1 [5 0] [0 4]] (REQUEST)
r 1.018409054 _6_ MAC  --- 0 CTS 38 [474 6 0 0] 
s 1.018419054 _6_ MAC  --- 0 AODV 102 [13a 1 6 800] ------- [6:255 2:255 30 1] [0x4 1 [6 4] 10.000000] (REPLY)
r 1.019235655 _1_ MAC  --- 0 AODV 44 [13a 1 6 800] ------- [6:255 2:255 30 1] [0x4 1 [6 4] 10.000000] (REPLY)
s 1.019245655 _1_ MAC  --- 0 ACK 38 [0 6 0 0] 
r 1.019260655 _1_ RTR  --- 0 AODV 44 [13a 1 6 800] ------- [6:255 2:255 30 1] [0x4 1 [6 4] 10.000000] (REPLY)
f 1.019260655 _1_ RTR  --- 0 AODV 44 [13a 1 6 800] ------- [6:255 2:255 29 2] [0x4 2 [6 4] 10.000000] (REPLY)
r 1.019550256 _6_ MAC  --- 0 ACK 38 [0 6 0 0] 
s 1.019659655 _1_ MAC  --- 0 ARP 86 [0 ffffffff 1 806] ------- [REQUEST 1/1 0/2]
r 1.020347989 _0_ MAC  --- 0 ARP 28 [0 ffffffff 1 806] ------- [REQUEST 1/1 0/2]
r 1.020348047 _2_ MAC  --- 0 ARP 28 [0 ffffffff 1 806] ------- [REQUEST 1/1 0/2]
r 1.020348256 _6_ MAC  --- 0 ARP 28 [0 ffffffff 1 806] ------- [REQUEST 1/1 0/2]
r 1.020348462 _5_ MAC  --- 0 ARP 28 [0 ffffffff 1 806] ------- [REQUEST 1/1 0/2]
s 1.020438047 _2_ MAC  --- 0 RTS 44 [52e 1 2 0] 
s 1.020438462 _5_ MAC  --- 0 RTS 44 [58e 0 5 0] 
r 1.020790439 _1_ MAC  --- 0 RTS 44 [52e 1 2 0] 
D 1.020791045 _0_ MAC  COL 0 RTS 44 [58e 0 5 0] 
s 1.021205645 _2_ MAC  --- 0 RTS 44 [52e 1 2 0] 
r 1.021558037 _1_ MAC  --- 0 RTS 44 [52e 1 2 0] 
s 1.021568037 _1_ MAC  --- 0 CTS 38 [3f4 2 0 0] 
r 1.021872429 _2_ MAC  --- 0 CTS 38 [3f4 2 0 0] 
s 1.021882429 _2_ MAC  --- 0 ARP 86 [13a 1 2 806] ------- [REPLY 2/2 1/1]
r 1.022570821 _1_ MAC  --- 0 ARP 28 [13a 1 2 806] ------- [REPLY 2/2 1/1]
s 1.022580821 _1_ MAC  --- 0 ACK 38 [0 2 0 0] 
r 1.022885213 _2_ MAC  --- 0 ACK 38 [0 2 0 0] 
s 1.023174821 _1_ MAC  --- 0 RTS 44 [5ae 2 1 0] 
r 1.023527213 _2_ MAC  --- 0 RTS 44 [5ae 2 1 0] 
s 1.023537213 _2_ MAC  --- 0 CTS 38 [474 1 0 0] 
r 1.023841605 _1_ MAC  --- 0 CTS 38 [474 1 0 0] 
s 1.023851605 _1_ MAC  --- 0 AODV 102 [13a 2 1 800] ------- [6:255 2:255 29 2] [0x4 2 [6 4] 10.000000] (REPLY)
r 1.024667997 _2_ MAC  --- 0 AODV 44 [13a 2 1 800] ------- [6:255 2:255 29 2] [0x4 2 [6 4] 10.000000] (REPLY)
s 1.024677997 _2_ MAC  --- 0 ACK 38 [0 1 0 0] 
r 1.024692997 _2_ RTR  --- 0 AODV 44 [13a 2 1 800] ------- [6:255 2:255 29 2] [0x4 2 [6 4] 10.000000] (REPLY)
s 1.024692997 _2_ RTR  --- 1 tcp 40 [0 0 0 0] ------- [2:0 6:0 30 1] [0 0] 0 0
r 1.024982390 _1_ MAC  --- 0 ACK 38 [0 1 0 0] 
s 1.025311997 _2_ MAC  --- 0 RTS 44 [58e 1 2 0] 
r 1.025664390 _1_ MAC  --- 0 RTS 44 [58e 1 2 0] 
s 1.025674390 _1_ MAC  --- 0 CTS 38 [454 2 0 0] 
r 1.025978782 _2_ MAC  --- 0 CTS 38 [454 2 0 0] 
s 1.025988782 _2_ MAC  --- 1 tcp 98 [13a 1 2 800] ------- [2:0 6:0 30 1] [0 0] 0 0
r 1.026773175 _1_ MAC  --- 1 tcp 40 [13a 1 2 800] ------- [2:0 6:0 30 1] [0 0] 1 0
s 1.026783175 _1_ MAC  --- 0 ACK 38 [0 2 0 0] 
r 1.026798175 _1_ RTR  --- 1 tcp 40 [13a 1 2 800] ------- [2:0 6:0 30 1] [0 0] 1 0
f 1.026798175 _1_ RTR  --- 1 tcp 40 [13a 1 2 800] ------- [2:0 6:0 29 6] [0 0] 1 0
r 1.027087567 _2_ MAC  --- 0 ACK 38 [0 2 0 0] 
s 1.027337175 _1_ MAC  --- 0 RTS 44 [58e 6 1 0] 
r 1.027689776 _6_ MAC  --- 0 RTS 44 [58e 6 1 0] 
s 1.027699776 _6_ MAC  --- 0 CTS 38 [454 1 0 0] 
r 1.028004377 _1_ MAC  --- 0 CTS 38 [454 1 0 0] 
s 1.028014377 _1_ MAC  --- 1 tcp 98 [13a 6 1 800] ------- [2:0 6:0 29 6] [0 0] 1 0
r 1.028798978 _6_ MAC  --- 1 tcp 40 [13a 6 1 800] ------- [2:0 6:0 29 6] [0 0] 2 0
s 1.028808978 _6_ MAC  --- 0 ACK 38 [0 1 0 0] 
r 1.028823978 _6_ AGT  --- 1 tcp 40 [13a 6 1 800] ------- [2:0 6:0 29 6] [0 0] 2 0
s 1.028823978 _6_ AGT  --- 3 ack 40 [0 0 0 0] ------- [6:0 2:0 32 0] [0 0] 0 0
r 1.028823978 _6_ RTR  --- 3 ack 40 [0 0 0 0] ------- [6:0 2:0 32 0] [0 0] 0 0
s 1.028823978 _6_ RTR  --- 3 ack 40 [0 0 0 0] ------- [6:0 2:0 30 1] [0 0] 0 0
r 1.029113578 _1_ MAC  --- 0 ACK 38 [0 1 0 0] 
s 1.029222978 _6_ MAC  --- 0 RTS 44 [58e 1 6 0] 
r 1.029575578 _1_ MAC  --- 0 RTS 44 [58e 1 6 0] 
s 1.029585578 _1_ MAC  --- 0 CTS 38 [454 6 0 0] 
r 1.029890179 _6_ MAC  --- 0 CTS 38 [454 6 0 0] 
s 1.029900179 _6_ MAC  --- 3 ack 98 [13a 1 6 800] ------- [6:0 2:0 30 1] [0 0] 0 0
r 1.030684780 _1_ MAC  --- 3 ack 40 [13a 1 6 800] ------- [6:0 2:0 30 1] [0 0] 1 0
s 1.030694780 _1_ MAC  --- 0 ACK 38 [0 6 0 0] 
r 1.030709780 _1_ RTR  --- 3 ack 40 [13a 1 6 800] ------- [6:0 2:0 30 1] [0 0] 1 0
f 1.030709780 _1_ RTR  --- 3 ack 40 [13a 1 6 800] ------- [6:0 2:0 29 2] [0 0] 1 0
r 1.030999381 _6_ MAC  --- 0 ACK 38 [0 6 0 0] 
s 1.031128780 _1_ MAC  --- 0 RTS 44 [58e 2 1 0] 
r 1.031481174 _2_ MAC  --- 0 RTS 44 [58e 2 1 0] 
s 1.031491174 _2_ MAC  --- 0 CTS 38 [454 1 0 0] 
r 1.031795567 _1_ MAC  --- 0 CTS 38 [454 1 0 0] 
s 1.031805567 _1_ MAC  --- 3 ack 98 [13a 2 1 800] ------- [6:0 2:0 29 2] [0 0] 1 0
r 1.032589961 _2_ MAC  --- 3 ack 40 [13a 2 1 800] ------- [6:0 2:0 29 2] [0 0] 2 0
s 1.032599961 _2_ MAC  --- 0 ACK 38 [0 1 0 0] 
r 1.032614961 _2_ AGT  --- 3 ack 40 [13a 2 1 800] ------- [6:0 2:0 29 2] [0 0] 2 0
s 1.032614961 _2_ AGT  --- 4 tcp 1040 [0 0 0 0] ------- [2:0 6:0 32 0] [1 0] 0 0
r 1.032614961 _2_ RTR  --- 4 tcp 1040 [0 0 0 0] ------- [2:0 6:0 32 0] [1 0] 0 0
s 1.032614961 _2_ AGT  --- 5 tcp 1040 [0 0 0 0] ------- [2:0 6:0 32 0] [2 0] 0 0
r 1.032614961 _2_ RTR  --- 5 tcp 1040 [0 0 0 0] ------- [2:0 6:0 32 0] [2 0] 0 0
s 1.032614961 _2_ RTR  --- 4 tcp 1040 [0 0 0 0] ------- [2:0 6:0 30 1] [1 0] 0 0
s 1.032614961 _2_ RTR  --- 5 tcp 1040 [0 0 0 0] ------- [2:0 6:0 30 1] [2 0] 0 0
r 1.032904354 _1_ MAC  --- 0 ACK 38 [0 1 0 0] 
s 1.033313961 _2_ MAC  --- 0 RTS 44 [24ce 1 2 0] 
r 1.033666354 _1_ MAC  --- 0 RTS 44 [24ce 1 2 0] 
s 1.033676354 _1_ MAC  --- 0 CTS 38 [2394 2 0 0] 
r 1.033980748 _2_ MAC  --- 0 CTS 38 [2394 2 0 0] 
s 1.033990748 _2_ MAC  --- 4 tcp 1098 [13a 1 2 800] ------- [2:0 6:0 30 1] [1 0] 0 0
r 1.042775142 _1_ MAC  --- 4 tcp 1040 [13a 1 2 800] ------- [2:0 6:0 30 1] [1 0] 1 0
s 1.042785142 _1_ MAC  --- 0 ACK 38 [0 2 0 0] 
r 1.042800142 _1_ RTR  --- 4 tcp 1040 [13a 1 2 800] ------- [2:0 6:0 30 1] [1 0] 1 0
f 1.042800142 _1_ RTR  --- 4 tcp 1040 [13a 1 2 800] ------- [2:0 6:0 29 6] [1 0] 1 0
r 1.043089537 _2_ MAC  --- 0 ACK 38 [0 2 0 0] 
s 1.043279142 _1_ MAC  --- 0 RTS 44 [24ce 6 1 0] 
r 1.043631743 _6_ MAC  --- 0 RTS 44 [24ce 6 1 0] 
s 1.043641743 _6_ MAC  --- 0 CTS 38 [2394 1 0 0] 
r 1.043946344 _1_ MAC  --- 0 CTS 38 [2394 1 0 0] 
s 1.043956344 _1_ MAC  --- 4 tcp 1098 [13a 6 1 800] ------- [2:0 6:0 29 6] [1 0] 1 0
r 1.052740944 _6_ MAC  --- 4 tcp 1040 [13a 6 1 800] ------- [2:0 6:0 29 6] [1 0] 2 0
s 1.052750944 _6_ MAC  --- 0 ACK 38 [0 1 0 0] 
r 1.052765944 _6_ AGT  --- 4 tcp 1040 [13a 6 1 800] ------- [2:0 6:0 29 6] [1 0] 2 0
s 1.052765944 _6_ AGT  --- 6 ack 40 [0 0 0 0] ------- [6:0 2:0 32 0] [1 0] 0 0
r 1.052765944 _6_ RTR  --- 6 ack 40 [0 0 0 0] ------- [6:0 2:0 32 0] [1 0] 0 0
s 1.052765944 _6_ RTR  --- 6 ack 40 [0 0 0 0] ------- [6:0 2:0 30 1] [1 0] 0 0
r 1.053055545 _1_ MAC  --- 0 ACK 38 [0 1 0 0] 
s 1.053195241 _4_ MAC  --- 0 AODV 106 [0 ffffffff 4 800] ------- [4:255 -1:255 28 0] [0x2 3 1 [5 0] [0 4]] (REQUEST)
r 1.054043574 _6_ MAC  --- 0 AODV 48 [0 ffffffff 4 800] ------- [4:255 -1:255 28 0] [0x2 3 1 [5 0] [0 4]] (REQUEST)
r 1.054043941 _3_ MAC  --- 0 AODV 48 [0 ffffffff 4 800] ------- [4:255 -1:255 28 0] [0x2 3 1 [5 0] [0 4]] (REQUEST)
r 1.054068574 _6_ RTR  --- 0 AODV 48 [0 ffffffff 4 800] ------- [4:255 -1:255 28 0] [0x2 3 1 [5 0] [0 4]] (REQUEST)
r 1.054068941 _3_ RTR  --- 0 AODV 48 [0 ffffffff 4 800] ------- [4:255 -1:255 28 0] [0x2 3 1 [5 0] [0 4]] (REQUEST)
s 1.054193941 _3_ MAC  --- 0 AODV 106 [0 ffffffff 3 800] ------- [3:255 -1:255 28 0] [0x2 3 1 [5 0] [0 4]] (REQUEST)
r 1.055042368 _5_ MAC  --- 0 AODV 48 [0 ffffffff 3 800] ------- [3:255 -1:255 28 0] [0x2 3 1 [5 0] [0 4]] (REQUEST)
r 1.055042641 _4_ MAC  --- 0 AODV 48 [0 ffffffff 3 800] ------- [3:255 -1:255 28 0] [0x2 3 1 [5 0] [0 4]] (REQUEST)
r 1.055042716 _6_ MAC  --- 0 AODV 48 [0 ffffffff 3 800] ------- [3:255 -1:255 28 0] [0x2 3 1 [5 0] [0 4]] (REQUEST)
r 1.055067368 _5_ RTR  --- 0 AODV 48 [0 ffffffff 3 800] ------- [3:255 -1:255 28 0] [0x2 3 1 [5 0] [0 4]] (REQUEST)
r 1.055067641 _4_ RTR  --- 0 AODV 48 [0 ffffffff 3 800] ------- [3:255 -1:255 28 0] [0x2 3 1 [5 0] [0 4]] (REQUEST)
r 1.055067716 _6_ RTR  --- 0 AODV 48 [0 ffffffff 3 800] ------- [3:255 -1:255 28 0] [0x2 3 1 [5 0] [0 4]] (REQUEST)
s 1.055112716 _6_ MAC  --- 0 RTS 44 [58e 1 6 0] 
r 1.055465317 _1_ MAC  --- 0 RTS 44 [58e 1 6 0] 
s 1.055475317 _1_ MAC  --- 0 CTS 38 [454 6 0 0] 
r 1.055779918 _6_ MAC  --- 0 CTS 38 [454 6 0 0] 
s 1.055789918 _6_ MAC  --- 6 ack 98 [13a 1 6 800] ------- [6:0 2:0 30 1] [1 0] 0 0
r 1.056574519 _1_ MAC  --- 6 ack 40 [13a 1 6 800] ------- [6:0 2:0 30 1] [1 0] 1 0
s 1.056584519 _1_ MAC  --- 0 ACK 38 [0 6 0 0] 
r 1.056599519 _1_ RTR  --- 6 ack 40 [13a 1 6 800] ------- [6:0 2:0 30 1] [1 0] 1 0
f 1.056599519 _1_ RTR  --- 6 ack 40 [13a 1 6 800] ------- [6:0 2:0 29 2] [1 0] 1 0
r 1.056889120 _6_ MAC  --- 0 ACK 38 [0 6 0 0] 
s 1.057038519 _1_ MAC  --- 0 RTS 44 [58e 2 1 0] 
r 1.057390916 _2_ MAC  --- 0 RTS 44 [58e 2 1 0] 
s 1.057400916 _2_ MAC  --- 0 CTS 38 [454 1 0 0] 
r 1.057705314 _1_ MAC  --- 0 CTS 38 [454 1 0 0] 
s 1.057715314 _1_ MAC  --- 6 ack 98 [13a 2 1 800] ------- [6:0 2:0 29 2] [1 0] 1 0
r 1.058499711 _2_ MAC  --- 6 ack 40 [13a 2 1 800] ------- [6:0 2:0 29 2] [1 0] 2 0
s 1.058509711 _2_ MAC  --- 0 ACK 38 [0 1 0 0] 
r 1.058524711 _2_ AGT  --- 6 ack 40 [13a 2 1 800] ------- [6:0 2:0 29 2] [1 0] 2 0
s 1.058524711 _2_ AGT  --- 7 tcp 1040 [0 0 0 0] ------- [2:0 6:0 32 0] [3 0] 0 0
r 1.058524711 _2_ RTR  --- 7 tcp 1040 [0 0 0 0] ------- [2:0 6:0 32 0] [3 0] 0 0
s 1.058524711 _2_ AGT  --- 8 tcp 1040 [0 0 0 0] ------- [2:0 6:0 32 0] [4 0] 0 0
r 1.058524711 _2_ RTR  --- 8 tcp 1040 [0 0 0 0] ------- [2:0 6:0 32 0] [4 0] 0 0
s 1.058524711 _2_ RTR  --- 7 tcp 1040 [0 0 0 0] ------- [2:0 6:0 30 1] [3 0] 0 0
s 1.058524711 _2_ RTR  --- 8 tcp 1040 [0 0 0 0] ------- [2:0 6:0 30 1] [4 0] 0 0
r 1.058814109 _1_ MAC  --- 0 ACK 38 [0 1 0 0] 
s 1.058963711 _2_ MAC  --- 0 RTS 44 [24ce 1 2 0] 
r 1.059316109 _1_ MAC  --- 0 RTS 44 [24ce 1 2 0] 
s 1.059326109 _1_ MAC  --- 0 CTS 38 [2394 2 0 0] 
r 1.059630506 _2_ MAC  --- 0 CTS 38 [2394 2 0 0] 
s 1.059640506 _2_ MAC  --- 5 tcp 1098 [13a 1 2 800] ------- [2:0 6:0 30 1] [2 0] 0 0
r 1.068424904 _1_ MAC  --- 5 tcp 1040 [13a 1 2 800] ------- [2:0 6:0 30 1] [2 0] 1 0
s 1.068434904 _1_ MAC  --- 0 ACK 38 [0 2 0 0] 
r 1.068449904 _1_ RTR  --- 5 tcp 1040 [13a 1 2 800] ------- [2:0 6:0 30 1] [2 0] 1 0
f 1.068449904 _1_ RTR  --- 5 tcp 1040 [13a 1 2 800] ------- [2:0 6:0 29 6] [2 0] 1 0
r 1.068739303 _2_ MAC  --- 0 ACK 38 [0 2 0 0] 
s 1.068908904 _1_ MAC  --- 0 RTS 44 [24ce 6 1 0] 
r 1.069261505 _6_ MAC  --- 0 RTS 44 [24ce 6 1 0] 
s 1.069271505 _6_ MAC  --- 0 CTS 38 [2394 1 0 0] 
r 1.069576106 _1_ MAC  --- 0 CTS 38 [2394 1 0 0] 
s 1.069586106 _1_ MAC  --- 5 tcp 1098 [13a 6 1 800] ------- [2:0 6:0 29 6] [2 0] 1 0
r 1.078370707 _6_ MAC  --- 5 tcp 1040 [13a 6 1 800] ------- [2:0 6:0 29 6] [2 0] 2 0
s 1.078380707 _6_ MAC  --- 0 ACK 38 [0 1 0 0] 
r 1.078395707 _6_ AGT  --- 5 tcp 1040 [13a 6 1 800] ------- [2:0 6:0 29 6] [2 0] 2 0
s 1.078395707 _6_ AGT  --- 9 ack 40 [0 0 0 0] ------- [6:0 2:0 32 0] [2 0] 0 0
r 1.078395707 _6_ RTR  --- 9 ack 40 [0 0 0 0] ------- [6:0 2:0 32 0] [2 0] 0 0
s 1.078395707 _6_ RTR  --- 9 ack 40 [0 0 0 0] ------- [6:0 2:0 30 1] [2 0] 0 0
r 1.078685308 _1_ MAC  --- 0 ACK 38 [0 1 0 0] 
s 1.078894707 _6_ MAC  --- 0 RTS 44 [58e 1 6 0] 
r 1.079247308 _1_ MAC  --- 0 RTS 44 [58e 1 6 0] 
s 1.079257308 _1_ MAC  --- 0 CTS 38 [454 6 0 0] 
r 1.079561909 _6_ MAC  --- 0 CTS 38 [454 6 0 0] 
s 1.079571909 _6_ MAC  --- 9 ack 98 [13a 1 6 800] ------- [6:0 2:0 30 1] [2 0] 0 0
r 1.080356510 _1_ MAC  --- 9 ack 40 [13a 1 6 800] ------- [6:0 2:0 30 1] [2 0] 1 0
s 1.080366510 _1_ MAC  --- 0 ACK 38 [0 6 0 0] 
r 1.080381510 _1_ RTR  --- 9 ack 40 [13a 1 6 800] ------- [6:0 2:0 30 1] [2 0] 1 0
f 1.080381510 _1_ RTR  --- 9 ack 40 [13a 1 6 800] ------- [6:0 2:0 29 2] [2 0] 1 0
r 1.080671111 _6_ MAC  --- 0 ACK 38 [0 6 0 0] 
s 1.080800510 _1_ MAC  --- 0 RTS 44 [58e 2 1 0] 
r 1.081152911 _2_ MAC  --- 0 RTS 44 [58e 2 1 0] 
s 1.081162911 _2_ MAC  --- 0 CTS 38 [454 1 0 0] 
r 1.081467312 _1_ MAC  --- 0 CTS 38 [454 1 0 0] 
s 1.081477312 _1_ MAC  --- 9 ack 98 [13a 2 1 800] ------- [6:0 2:0 29 2] [2 0] 1 0
r 1.082261713 _2_ MAC  --- 9 ack 40 [13a 2 1 800] ------- [6:0 2:0 29 2] [2 0] 2 0
s 1.082271713 _2_ MAC  --- 0 ACK 38 [0 1 0 0] 
r 1.082286713 _2_ AGT  --- 9 ack 40 [13a 2 1 800] ------- [6:0 2:0 29 2] [2 0] 2 0
s 1.082286713 _2_ AGT  --- 10 tcp 1040 [0 0 0 0] ------- [2:0 6:0 32 0] [5 0] 0 0
r 1.082286713 _2_ RTR  --- 10 tcp 1040 [0 0 0 0] ------- [2:0 6:0 32 0] [5 0] 0 0
s 1.082286713 _2_ AGT  --- 11 tcp 1040 [0 0 0 0] ------- [2:0 6:0 32 0] [6 0] 0 0
r 1.082286713 _2_ RTR  --- 11 tcp 1040 [0 0 0 0] ------- [2:0 6:0 32 0] [6 0] 0 0
s 1.082286713 _2_ RTR  --- 10 tcp 1040 [0 0 0 0] ------- [2:0 6:0 30 1] [5 0] 0 0
s 1.082286713 _2_ RTR  --- 11 tcp 1040 [0 0 0 0] ------- [2:0 6:0 30 1] [6 0] 0 0
r 1.082576114 _1_ MAC  --- 0 ACK 38 [0 1 0 0] 
s 1.082805713 _2_ MAC  --- 0 RTS 44 [24ce 1 2 0] 
r 1.083158114 _1_ MAC  --- 0 RTS 44 [24ce 1 2 0] 
s 1.083168114 _1_ MAC  --- 0 CTS 38 [2394 2 0 0] 
r 1.083472515 _2_ MAC  --- 0 CTS 38 [2394 2 0 0] 
s 1.083482515 _2_ MAC  --- 7 tcp 1098 [13a 1 2 800] ------- [2:0 6:0 30 1] [3 0] 0 0
r 1.092266917 _1_ MAC  --- 7 tcp 1040 [13a 1 2 800] ------- [2:0 6:0 30 1] [3 0] 1 0
s 1.092276917 _1_ MAC  --- 0 ACK 38 [0 2 0 0] 
r 1.092291917 _1_ RTR  --- 7 tcp 1040 [13a 1 2 800] ------- [2:0 6:0 30 1] [3 0] 1 0
f 1.092291917 _1_ RTR  --- 7 tcp 1040 [13a 1 2 800] ------- [2:0 6:0 29 6] [3 0] 1 0
r 1.092581320 _2_ MAC  --- 0 ACK 38 [0 2 0 0] 
s 1.092631320 _2_ MAC  --- 0 RTS 44 [24ce 1 2 0] 
r 1.092983723 _1_ MAC  --- 0 RTS 44 [24ce 1 2 0] 
s 1.092993723 _1_ MAC  --- 0 CTS 38 [2394 2 0 0] 
r 1.093298125 _2_ MAC  --- 0 CTS 38 [2394 2 0 0] 
s 1.093308125 _2_ MAC  --- 8 tcp 1098 [13a 1 2 800] ------- [2:0 6:0 30 1] [4 0] 0 0
r 1.102092528 _1_ MAC  --- 8 tcp 1040 [13a 1 2 800] ------- [2:0 6:0 30 1] [4 0] 1 0
s 1.102102528 _1_ MAC  --- 0 ACK 38 [0 2 0 0] 
r 1.102117528 _1_ RTR  --- 8 tcp 1040 [13a 1 2 800] ------- [2:0 6:0 30 1] [4 0] 1 0
f 1.102117528 _1_ RTR  --- 8 tcp 1040 [13a 1 2 800] ------- [2:0 6:0 29 6] [4 0] 1 0
r 1.102406933 _2_ MAC  --- 0 ACK 38 [0 2 0 0] 
s 1.102576528 _1_ MAC  --- 0 RTS 44 [24ce 6 1 0] 
r 1.102929129 _6_ MAC  --- 0 RTS 44 [24ce 6 1 0] 
s 1.102939129 _6_ MAC  --- 0 CTS 38 [2394 1 0 0] 
r 1.103243730 _1_ MAC  --- 0 CTS 38 [2394 1 0 0] 
s 1.103253730 _1_ MAC  --- 7 tcp 1098 [13a 6 1 800] ------- [2:0 6:0 29 6] [3 0] 1 0
r 1.112038331 _6_ MAC  --- 7 tcp 1040 [13a 6 1 800] ------- [2:0 6:0 29 6] [3 0] 2 0
s 1.112048331 _6_ MAC  --- 0 ACK 38 [0 1 0 0] 
r 1.112063331 _6_ AGT  --- 7 tcp 1040 [13a 6 1 800] ------- [2:0 6:0 29 6] [3 0] 2 0
s 1.112063331 _6_ AGT  --- 12 ack 40 [0 0 0 0] ------- [6:0 2:0 32 0] [3 0] 0 0
r 1.112063331 _6_ RTR  --- 12 ack 40 [0 0 0 0] ------- [6:0 2:0 32 0] [3 0] 0 0
s 1.112063331 _6_ RTR  --- 12 ack 40 [0 0 0 0] ------- [6:0 2:0 30 1] [3 0] 0 0
r 1.112352932 _1_ MAC  --- 0 ACK 38 [0 1 0 0] 
s 1.112682932 _1_ MAC  --- 0 RTS 44 [24ce 6 1 0] 
r 1.113035533 _6_ MAC  --- 0 RTS 44 [24ce 6 1 0] 
s 1.113045533 _6_ MAC  --- 0 CTS 38 [2394 1 0 0] 
r 1.113350134 _1_ MAC  --- 0 CTS 38 [2394 1 0 0] 
s 1.113360134 _1_ MAC  --- 8 tcp 1098 [13a 6 1 800] ------- [2:0 6:0 29 6] [4 0] 1 0
r 1.122144735 _6_ MAC  --- 8 tcp 1040 [13a 6 1 800] ------- [2:0 6:0 29 6] [4 0] 2 0
s 1.122154735 _6_ MAC  --- 0 ACK 38 [0 1 0 0] 
r 1.122169735 _6_ AGT  --- 8 tcp 1040 [13a 6 1 800] ------- [2:0 6:0 29 6] [4 0] 2 0
s 1.122169735 _6_ AGT  --- 13 ack 40 [0 0 0 0] ------- [6:0 2:0 32 0] [4 0] 0 0
r 1.122169735 _6_ RTR  --- 13 ack 40 [0 0 0 0] ------- [6:0 2:0 32 0] [4 0] 0 0
s 1.122169735 _6_ RTR  --- 13 ack 40 [0 0 0 0] ------- [6:0 2:0 30 1] [4 0] 0 0
r 1.122459336 _1_ MAC  --- 0 ACK 38 [0 1 0 0] 
s 1.122528735 _6_ MAC  --- 0 RTS 44 [58e 1 6 0] 
r 1.122881336 _1_ MAC  --- 0 RTS 44 [58e 1 6 0] 
s 1.122891336 _1_ MAC  --- 0 CTS 38 [454 6 0 0] 
r 1.123195937 _6_ MAC  --- 0 CTS 38 [454 6 0 0] 
s 1.123205937 _6_ MAC  --- 12 ack 98 [13a 1 6 800] ------- [6:0 2:0 30 1] [3 0] 0 0
r 1.123990538 _1_ MAC  --- 12 ack 40 [13a 1 6 800] ------- [6:0 2:0 30 1] [3 0] 1 0
s 1.124000538 _1_ MAC  --- 0 ACK 38 [0 6 0 0] 
r 1.124015538 _1_ RTR  --- 12 ack 40 [13a 1 6 800] ------- [6:0 2:0 30 1] [3 0] 1 0
f 1.124015538 _1_ RTR  --- 12 ack 40 [13a 1 6 800] ------- [6:0 2:0 29 2] [3 0] 1 0
r 1.124305139 _6_ MAC  --- 0 ACK 38 [0 6 0 0] 
s 1.124524776 _2_ MAC  --- 0 RTS 44 [24ce 1 2 0] 
r 1.124877184 _1_ MAC  --- 0 RTS 44 [24ce 1 2 0] 
s 1.124887184 _1_ MAC  --- 0 CTS 38 [2394 2 0 0] 
r 1.125191592 _2_ MAC  --- 0 CTS 38 [2394 2 0 0] 
s 1.125201592 _2_ MAC  --- 10 tcp 1098 [13a 1 2 800] ------- [2:0 6:0 30 1] [5 0] 0 0
r 1.133986000 _1_ MAC  --- 10 tcp 1040 [13a 1 2 800] ------- [2:0 6:0 30 1] [5 0] 1 0
s 1.133996000 _1_ MAC  --- 0 ACK 38 [0 2 0 0] 
r 1.134011000 _1_ RTR  --- 10 tcp 1040 [13a 1 2 800] ------- [2:0 6:0 30 1] [5 0] 1 0
f 1.134011000 _1_ RTR  --- 10 tcp 1040 [13a 1 2 800] ------- [2:0 6:0 29 6] [5 0] 1 0
r 1.134300410 _2_ MAC  --- 0 ACK 38 [0 2 0 0] 
s 1.134470410 _2_ MAC  --- 0 RTS 44 [24ce 1 2 0] 
r 1.134822819 _1_ MAC  --- 0 RTS 44 [24ce 1 2 0] 
s 1.134832819 _1_ MAC  --- 0 CTS 38 [2394 2 0 0] 
r 1.135137229 _2_ MAC  --- 0 CTS 38 [2394 2 0 0] 
s 1.135147229 _2_ MAC  --- 11 tcp 1098 [13a 1 2 800] ------- [2:0 6:0 30 1] [6 0] 0 0
r 1.143931639 _1_ MAC  --- 11 tcp 1040 [13a 1 2 800] ------- [2:0 6:0 30 1] [6 0] 1 0
s 1.143941639 _1_ MAC  --- 0 ACK 38 [0 2 0 0] 
r 1.143956639 _1_ RTR  --- 11 tcp 1040 [13a 1 2 800] ------- [2:0 6:0 30 1] [6 0] 1 0
f 1.143956639 _1_ RTR  --- 11 tcp 1040 [13a 1 2 800] ------- [2:0 6:0 29 6] [6 0] 1 0
r 1.144246050 _2_ MAC  --- 0 ACK 38 [0 2 0 0] 
s 1.144366068 _6_ MAC  --- 0 RTS 44 [58e 1 6 0] 
r 1.144718669 _1_ MAC  --- 0 RTS 44 [58e 1 6 0] 
s 1.144728669 _1_ MAC  --- 0 CTS 38 [454 6 0 0] 
r 1.145033270 _6_ MAC  --- 0 CTS 38 [454 6 0 0] 
s 1.145043270 _6_ MAC  --- 13 ack 98 [13a 1 6 800] ------- [6:0 2:0 30 1] [4 0] 0 0
r 1.145827870 _1_ MAC  --- 13 ack 40 [13a 1 6 800] ------- [6:0 2:0 30 1] [4 0] 1 0
s 1.145837870 _1_ MAC  --- 0 ACK 38 [0 6 0 0] 
r 1.145852870 _1_ RTR  --- 13 ack 40 [13a 1 6 800] ------- [6:0 2:0 30 1] [4 0] 1 0
f 1.145852870 _1_ RTR  --- 13 ack 40 [13a 1 6 800] ------- [6:0 2:0 29 2] [4 0] 1 0
r 1.146142471 _6_ MAC  --- 0 ACK 38 [0 6 0 0] 
s 1.146331870 _1_ MAC  --- 0 RTS 44 [58e 2 1 0] 
r 1.146684282 _2_ MAC  --- 0 RTS 44 [58e 2 1 0] 
s 1.146694282 _2_ MAC  --- 0 CTS 38 [454 1 0 0] 
r 1.146998694 _1_ MAC  --- 0 CTS 38 [454 1 0 0] 
s 1.147008694 _1_ MAC  --- 12 ack 98 [13a 2 1 800] ------- [6:0 2:0 29 2] [3 0] 1 0
r 1.147793105 _2_ MAC  --- 12 ack 40 [13a 2 1 800] ------- [6:0 2:0 29 2] [3 0] 2 0
s 1.147803105 _2_ MAC  --- 0 ACK 38 [0 1 0 0] 
r 1.147818105 _2_ AGT  --- 12 ack 40 [13a 2 1 800] ------- [6:0 2:0 29 2] [3 0] 2 0
s 1.147818105 _2_ AGT  --- 14 tcp 1040 [0 0 0 0] ------- [2:0 6:0 32 0] [7 0] 0 0
r 1.147818105 _2_ RTR  --- 14 tcp 1040 [0 0 0 0] ------- [2:0 6:0 32 0] [7 0] 0 0
s 1.147818105 _2_ AGT  --- 15 tcp 1040 [0 0 0 0] ------- [2:0 6:0 32 0] [8 0] 0 0
r 1.147818105 _2_ RTR  --- 15 tcp 1040 [0 0 0 0] ------- [2:0 6:0 32 0] [8 0] 0 0
s 1.147818105 _2_ RTR  --- 14 tcp 1040 [0 0 0 0] ------- [2:0 6:0 30 1] [7 0] 0 0