n -t * -s 0  -x 0 -y 0 -Z 0 -z 50  -v circle -c black
n -t * -s 1  -x 0 -y 0 -Z 0 -z 50  -v circle -c black
n -t * -s 2  -x 0 -y 0 -Z 0 -z 50  -v circle -c black
n -t * -s 3  -x 0 -y 0 -Z 0 -z 50  -v circle -c black
n -t * -s 4  -x 0 -y 0 -Z 0 -z 50  -v circle -c black
n -t * -s 5  -x 0 -y 0 -Z 0 -z 50  -v circle -c black
n -t * -s 6  -x 0 -y 0 -Z 0 -z 50  -v circle -c black
n -t * -s 7  -x 0 -y 0 -Z 0 -z 50  -v circle -c black
n -t * -s 8  -x 0 -y 0 -Z 0 -z 50  -v circle -c black
n -t * -s 9  -x 0 -y 0 -Z 0 -z 50  -v circle -c black
V -t * -v 1.0a5 -a 0
W -t * -x 500 -y 500
A -t * -n 1 -p 0 -o 0x7fffffff -c 30 -a 1
A -t * -h 1 -m 1073741823 -s 0
n -t 1.000000 -s 0 -x -110.000000 -y 350.000000 -U 0.000000 -V -0.000000 -T 0.000000
n -t 1.000000 -s 1 -x -10.000000 -y 350.000000 -U 0.000000 -V -0.000000 -T 0.000000
n -t 1.000000 -s 2 -x 50.000000 -y 450.000000 -U 85.000000 -V 0.000000 -T 1.764706
n -t 1.000000 -s 3 -x -120.000000 -y 100.000000 -U 0.000000 -V 0.000000 -T 0.000000
n -t 1.000000 -s 4 -x 90.000000 -y 100.000000 -U -0.000000 -V -0.000000 -T 0.000000
n -t 1.000000 -s 5 -x -200.000000 -y 200.000000 -U 0.000000 -V 0.000000 -T 0.000000
n -t 1.000000 -s 6 -x 90.000000 -y 200.000000 -U -0.000000 -V 0.000000 -T 0.000000
n -t 1.000000 -s 7 -x 400.000000 -y 100.000000 -U -0.000000 -V 0.000000 -T 0.000000
n -t 1.000000 -s 8 -x -410.000000 -y 320.000000 -U 0.000000 -V -0.000000 -T 0.000000
n -t 1.000000 -s 9 -x 280.000000 -y -140.000000 -U -0.000000 -V 0.000000 -T 0.000000
n -t 1 -s 0 -S COLOR -c red -o red -i red -I red
n -t 1 -s 5 -S COLOR -c red -o red -i red -I red
n -t 1 -s 2 -S COLOR -c darkgreen -o darkgreen -i darkgreen -I darkgreen
+ -t 1.000000000 -s 0 -d -1 -p tcp -e 40 -c 2 -a 0 -i 0 -k AGT 
- -t 1.000000000 -s 0 -d -1 -p tcp -e 40 -c 2 -a 0 -i 0 -k AGT
h -t 1.000000000 -s 0 -d -1 -p tcp -e 40 -c 2 -a 0 -i 0 -k AGT
+ -t 1.000000000 -s 2 -d -1 -p tcp -e 40 -c 2 -a 0 -i 1 -k AGT 
- -t 1.000000000 -s 2 -d -1 -p tcp -e 40 -c 2 -a 0 -i 1 -k AGT
h -t 1.000000000 -s 2 -d -1 -p tcp -e 40 -c 2 -a 0 -i 1 -k AGT
+ -t 1.000000000 -s 0 -d -1 -p AODV -e 48 -c 2 -a 0 -i 0 -k RTR 
- -t 1.000000000 -s 0 -d -1 -p AODV -e 48 -c 2 -a 0 -i 0 -k RTR
h -t 1.000000000 -s 0 -d -1 -p AODV -e 48 -c 2 -a 0 -i 0 -k RTR
+ -t 1.000000000 -s 2 -d -1 -p AODV -e 48 -c 2 -a 0 -i 0 -k RTR 
- -t 1.000000000 -s 2 -d -1 -p AODV -e 48 -c 2 -a 0 -i 0 -k RTR
h -t 1.000000000 -s 2 -d -1 -p AODV -e 48 -c 2 -a 0 -i 0 -k RTR
+ -t 1.000375000 -s 2 -d -1 -p AODV -e 106 -c 2 -a 0 -i 0 -k MAC 
- -t 1.000375000 -s 2 -d -1 -p AODV -e 106 -c 2 -a 0 -i 0 -k MAC
h -t 1.000375000 -s 2 -d -1 -p AODV -e 106 -c 2 -a 0 -i 0 -k MAC
r -t 1.001223389 -s 1 -d -1 -p AODV -e 48 -c 2 -a 0 -i 0 -k MAC
r -t 1.001223629 -s 0 -d -1 -p AODV -e 48 -c 2 -a 0 -i 0 -k MAC
r -t 1.001248389 -s 1 -d -1 -p AODV -e 48 -c 2 -a 0 -i 0 -k RTR
r -t 1.001248629 -s 0 -d -1 -p AODV -e 48 -c 2 -a 0 -i 0 -k RTR
+ -t 1.001533629 -s 0 -d -1 -p AODV -e 106 -c 2 -a 0 -i 0 -k MAC 
- -t 1.001533629 -s 0 -d -1 -p AODV -e 106 -c 2 -a 0 -i 0 -k MAC
h -t 1.001533629 -s 0 -d -1 -p AODV -e 106 -c 2 -a 0 -i 0 -k MAC
r -t 1.002381962 -s 1 -d -1 -p AODV -e 48 -c 2 -a 0 -i 0 -k MAC
r -t 1.002382212 -s 5 -d -1 -p AODV -e 48 -c 2 -a 0 -i 0 -k MAC
r -t 1.002382258 -s 2 -d -1 -p AODV -e 48 -c 2 -a 0 -i 0 -k MAC
r -t 1.002382462 -s 6 -d -1 -p AODV -e 48 -c 2 -a 0 -i 0 -k MAC
r -t 1.002406962 -s 1 -d -1 -p AODV -e 48 -c 2 -a 0 -i 0 -k RTR
r -t 1.002407212 -s 5 -d -1 -p AODV -e 48 -c 2 -a 0 -i 0 -k RTR
+ -t 1.002407212 -s 5 -d 0 -p AODV -e 44 -c 2 -a 0 -i 0 -k RTR 
- -t 1.002407212 -s 5 -d 0 -p AODV -e 44 -c 2 -a 0 -i 0 -k RTR
h -t 1.002407212 -s 5 -d 0 -p AODV -e 44 -c 2 -a 0 -i 0 -k RTR
r -t 1.002407258 -s 2 -d -1 -p AODV -e 48 -c 2 -a 0 -i 0 -k RTR
r -t 1.002407462 -s 6 -d -1 -p AODV -e 48 -c 2 -a 0 -i 0 -k RTR
+ -t 1.002702212 -s 5 -d -1 -p ARP -e 86 -c 2 -a 0 -i 0 -k MAC 
- -t 1.002702212 -s 5 -d -1 -p ARP -e 86 -c 2 -a 0 -i 0 -k MAC
h -t 1.002702212 -s 5 -d -1 -p ARP -e 86 -c 2 -a 0 -i 0 -k MAC
r -t 1.003390639 -s 3 -d -1 -p ARP -e 28 -c 2 -a 0 -i 0 -k MAC
r -t 1.003390795 -s 0 -d -1 -p ARP -e 28 -c 2 -a 0 -i 0 -k MAC
r -t 1.003391018 -s 8 -d -1 -p ARP -e 28 -c 2 -a 0 -i 0 -k MAC
r -t 1.003391019 -s 1 -d -1 -p ARP -e 28 -c 2 -a 0 -i 0 -k MAC
+ -t 1.003985795 -s 0 -d -1 -p RTS -e 44 -c 2 -a 0 -i 0 -k MAC 
- -t 1.003985795 -s 0 -d -1 -p RTS -e 44 -c 2 -a 0 -i 0 -k MAC
h -t 1.003985795 -s 0 -d -1 -p RTS -e 44 -c 2 -a 0 -i 0 -k MAC
r -t 1.004338378 -s 5 -d -1 -p RTS -e 44 -c 2 -a 0 -i 0 -k MAC
+ -t 1.004348378 -s 5 -d -1 -p CTS -e 38 -c 2 -a 0 -i 0 -k MAC 
- -t 1.004348378 -s 5 -d -1 -p CTS -e 38 -c 2 -a 0 -i 0 -k MAC
h -t 1.004348378 -s 5 -d -1 -p CTS -e 38 -c 2 -a 0 -i 0 -k MAC
+ -t 1.004378247 -s 0 -d -1 -p AODV -e 48 -c 2 -a 0 -i 0 -k RTR 
- -t 1.004378247 -s 0 -d -1 -p AODV -e 48 -c 2 -a 0 -i 0 -k RTR
h -t 1.004378247 -s 0 -d -1 -p AODV -e 48 -c 2 -a 0 -i 0 -k RTR
r -t 1.004652961 -s 0 -d -1 -p CTS -e 38 -c 2 -a 0 -i 0 -k MAC
+ -t 1.004662961 -s 0 -d -1 -p ARP -e 86 -c 2 -a 0 -i 0 -k MAC 
- -t 1.004662961 -s 0 -d -1 -p ARP -e 86 -c 2 -a 0 -i 0 -k MAC
h -t 1.004662961 -s 0 -d -1 -p ARP -e 86 -c 2 -a 0 -i 0 -k MAC
+ -t 1.004752980 -s 1 -d -1 -p AODV -e 48 -c 2 -a 0 -i 0 -k RTR 
- -t 1.004752980 -s 1 -d -1 -p AODV -e 48 -c 2 -a 0 -i 0 -k RTR
h -t 1.004752980 -s 1 -d -1 -p AODV -e 48 -c 2 -a 0 -i 0 -k RTR
r -t 1.005351544 -s 5 -d -1 -p ARP -e 28 -c 2 -a 0 -i 0 -k MAC
+ -t 1.005361544 -s 5 -d -1 -p ACK -e 38 -c 2 -a 0 -i 0 -k MAC 
- -t 1.005361544 -s 5 -d -1 -p ACK -e 38 -c 2 -a 0 -i 0 -k MAC
h -t 1.005361544 -s 5 -d -1 -p ACK -e 38 -c 2 -a 0 -i 0 -k MAC
+ -t 1.005498253 -s 6 -d -1 -p AODV -e 48 -c 2 -a 0 -i 0 -k RTR 
- -t 1.005498253 -s 6 -d -1 -p AODV -e 48 -c 2 -a 0 -i 0 -k RTR
h -t 1.005498253 -s 6 -d -1 -p AODV -e 48 -c 2 -a 0 -i 0 -k RTR
r -t 1.005666128 -s 0 -d -1 -p ACK -e 38 -c 2 -a 0 -i 0 -k MAC
+ -t 1.005876128 -s 0 -d -1 -p AODV -e 106 -c 2 -a 0 -i 0 -k MAC 
- -t 1.005876128 -s 0 -d -1 -p AODV -e 106 -c 2 -a 0 -i 0 -k MAC
h -t 1.005876128 -s 0 -d -1 -p AODV -e 106 -c 2 -a 0 -i 0 -k MAC
+ -t 1.005876351 -s 1 -d -1 -p AODV -e 106 -c 2 -a 0 -i 0 -k MAC 
- -t 1.005876351 -s 1 -d -1 -p AODV -e 106 -c 2 -a 0 -i 0 -k MAC
h -t 1.005876351 -s 1 -d -1 -p AODV -e 106 -c 2 -a 0 -i 0 -k MAC
d -t 1.005876758 -s 2 -d -1 -p AODV -e 106 -c 2 -a 0 -i 0 -k MAC
d -t 1.005876961 -s 6 -d -1 -p AODV -e 106 -c 2 -a 0 -i 0 -k MAC
d -t 1.005877158 -s 5 -d -1 -p AODV -e 106 -c 2 -a 0 -i 0 -k MAC
d -t 1.006724758 -s 2 -d -1 -p AODV -e 106 -c 2 -a 0 -i 0 -k MAC
d -t 1.006724961 -s 6 -d -1 -p AODV -e 106 -c 2 -a 0 -i 0 -k MAC
d -t 1.006725158 -s 5 -d -1 -p AODV -e 106 -c 2 -a 0 -i 0 -k MAC
+ -t 1.007219158 -s 5 -d -1 -p RTS -e 44 -c 2 -a 0 -i 0 -k MAC 
- -t 1.007219158 -s 5 -d -1 -p RTS -e 44 -c 2 -a 0 -i 0 -k MAC
h -t 1.007219158 -s 5 -d -1 -p RTS -e 44 -c 2 -a 0 -i 0 -k MAC
r -t 1.007571741 -s 0 -d -1 -p RTS -e 44 -c 2 -a 0 -i 0 -k MAC
+ -t 1.007581741 -s 0 -d -1 -p CTS -e 38 -c 2 -a 0 -i 0 -k MAC 
- -t 1.007581741 -s 0 -d -1 -p CTS -e 38 -c 2 -a 0 -i 0 -k MAC
h -t 1.007581741 -s 0 -d -1 -p CTS -e 38 -c 2 -a 0 -i 0 -k MAC
r -t 1.007886325 -s 5 -d -1 -p CTS -e 38 -c 2 -a 0 -i 0 -k MAC
+ -t 1.007896325 -s 5 -d 0 -p AODV -e 102 -c 2 -a 0 -i 0 -k MAC 
- -t 1.007896325 -s 5 -d 0 -p AODV -e 102 -c 2 -a 0 -i 0 -k MAC
h -t 1.007896325 -s 5 -d 0 -p AODV -e 102 -c 2 -a 0 -i 0 -k MAC
r -t 1.008712908 -s 0 -d 0 -p AODV -e 44 -c 2 -a 0 -i 0 -k MAC
+ -t 1.008722908 -s 0 -d -1 -p ACK -e 38 -c 2 -a 0 -i 0 -k MAC 
- -t 1.008722908 -s 0 -d -1 -p ACK -e 38 -c 2 -a 0 -i 0 -k MAC
h -t 1.008722908 -s 0 -d -1 -p ACK -e 38 -c 2 -a 0 -i 0 -k MAC
+ -t 1.008737908 -s 0 -d 5 -p tcp -e 40 -c 2 -a 0 -i 0 -k RTR 
- -t 1.008737908 -s 0 -d 5 -p tcp -e 40 -c 2 -a 0 -i 0 -k RTR
h -t 1.008737908 -s 0 -d 5 -p tcp -e 40 -c 2 -a 0 -i 0 -k RTR
+ -t 1.008795910 -s 2 -d -1 -p AODV -e 48 -c 2 -a 0 -i 0 -k RTR 
- -t 1.008795910 -s 2 -d -1 -p AODV -e 48 -c 2 -a 0 -i 0 -k RTR
h -t 1.008795910 -s 2 -d -1 -p AODV -e 48 -c 2 -a 0 -i 0 -k RTR
r -t 1.009027491 -s 5 -d -1 -p ACK -e 38 -c 2 -a 0 -i 0 -k MAC
+ -t 1.009239943 -s 1 -d -1 -p AODV -e 48 -c 2 -a 0 -i 0 -k RTR 
- -t 1.009239943 -s 1 -d -1 -p AODV -e 48 -c 2 -a 0 -i 0 -k RTR
h -t 1.009239943 -s 1 -d -1 -p AODV -e 48 -c 2 -a 0 -i 0 -k RTR
+ -t 1.009337241 -s 1 -d -1 -p AODV -e 106 -c 2 -a 0 -i 0 -k MAC 
- -t 1.009337241 -s 1 -d -1 -p AODV -e 106 -c 2 -a 0 -i 0 -k MAC
h -t 1.009337241 -s 1 -d -1 -p AODV -e 106 -c 2 -a 0 -i 0 -k MAC
r -t 1.010185574 -s 0 -d -1 -p AODV -e 48 -c 2 -a 0 -i 0 -k MAC
r -t 1.010185631 -s 2 -d -1 -p AODV -e 48 -c 2 -a 0 -i 0 -k MAC
r -t 1.010185842 -s 6 -d -1 -p AODV -e 48 -c 2 -a 0 -i 0 -k MAC
r -t 1.010186048 -s 5 -d -1 -p AODV -e 48 -c 2 -a 0 -i 0 -k MAC
r -t 1.010210574 -s 0 -d -1 -p AODV -e 48 -c 2 -a 0 -i 0 -k RTR
r -t 1.010210631 -s 2 -d -1 -p AODV -e 48 -c 2 -a 0 -i 0 -k RTR
r -t 1.010210842 -s 6 -d -1 -p AODV -e 48 -c 2 -a 0 -i 0 -k RTR
+ -t 1.010210842 -s 6 -d 1 -p AODV -e 44 -c 2 -a 0 -i 0 -k RTR 
- -t 1.010210842 -s 6 -d 1 -p AODV -e 44 -c 2 -a 0 -i 0 -k RTR
h -t 1.010210842 -s 6 -d 1 -p AODV -e 44 -c 2 -a 0 -i 0 -k RTR
r -t 1.010211048 -s 5 -d -1 -p AODV -e 48 -c 2 -a 0 -i 0 -k RTR
+ -t 1.010315842 -s 6 -d -1 -p AODV -e 106 -c 2 -a 0 -i 0 -k MAC 
- -t 1.010315842 -s 6 -d -1 -p AODV -e 106 -c 2 -a 0 -i 0 -k MAC
h -t 1.010315842 -s 6 -d -1 -p AODV -e 106 -c 2 -a 0 -i 0 -k MAC
r -t 1.011164175 -s 4 -d -1 -p AODV -e 48 -c 2 -a 0 -i 0 -k MAC
r -t 1.011164443 -s 1 -d -1 -p AODV -e 48 -c 2 -a 0 -i 0 -k MAC
r -t 1.011164617 -s 3 -d -1 -p AODV -e 48 -c 2 -a 0 -i 0 -k MAC
r -t 1.011164675 -s 0 -d -1 -p AODV -e 48 -c 2 -a 0 -i 0 -k MAC
r -t 1.011189175 -s 4 -d -1 -p AODV -e 48 -c 2 -a 0 -i 0 -k RTR
r -t 1.011189443 -s 1 -d -1 -p AODV -e 48 -c 2 -a 0 -i 0 -k RTR
r -t 1.011189617 -s 3 -d -1 -p AODV -e 48 -c 2 -a 0 -i 0 -k RTR
r -t 1.011189675 -s 0 -d -1 -p AODV -e 48 -c 2 -a 0 -i 0 -k RTR
+ -t 1.011274675 -s 0 -d -1 -p RTS -e 44 -c 2 -a 0 -i 0 -k MAC 
- -t 1.011274675 -s 0 -d -1 -p RTS -e 44 -c 2 -a 0 -i 0 -k MAC
h -t 1.011274675 -s 0 -d -1 -p RTS -e 44 -c 2 -a 0 -i 0 -k MAC
r -t 1.011627258 -s 5 -d -1 -p RTS -e 44 -c 2 -a 0 -i 0 -k MAC
+ -t 1.011637258 -s 5 -d -1 -p CTS -e 38 -c 2 -a 0 -i 0 -k MAC 
- -t 1.011637258 -s 5 -d -1 -p CTS -e 38 -c 2 -a 0 -i 0 -k MAC
h -t 1.011637258 -s 5 -d -1 -p CTS -e 38 -c 2 -a 0 -i 0 -k MAC
r -t 1.011941841 -s 0 -d -1 -p CTS -e 38 -c 2 -a 0 -i 0 -k MAC
+ -t 1.011951841 -s 0 -d 5 -p tcp -e 98 -c 2 -a 0 -i 0 -k MAC 
- -t 1.011951841 -s 0 -d 5 -p tcp -e 98 -c 2 -a 0 -i 0 -k MAC
h -t 1.011951841 -s 0 -d 5 -p tcp -e 98 -c 2 -a 0 -i 0 -k MAC
r -t 1.012736424 -s 5 -d 5 -p tcp -e 40 -c 2 -a 0 -i 0 -k MAC
+ -t 1.012746424 -s 5 -d -1 -p ACK -e 38 -c 2 -a 0 -i 0 -k MAC 
- -t 1.012746424 -s 5 -d -1 -p ACK -e 38 -c 2 -a 0 -i 0 -k MAC
h -t 1.012746424 -s 5 -d -1 -p ACK -e 38 -c 2 -a 0 -i 0 -k MAC
r -t 1.012761424 -s 5 -d 5 -p tcp -e 40 -c 2 -a 0 -i 0 -k AGT
+ -t 1.012761424 -s 5 -d -1 -p ack -e 40 -c 2 -a 0 -i 2 -k AGT 
- -t 1.012761424 -s 5 -d -1 -p ack -e 40 -c 2 -a 0 -i 2 -k AGT
h -t 1.012761424 -s 5 -d -1 -p ack -e 40 -c 2 -a 0 -i 2 -k AGT
+ -t 1.012761424 -s 5 -d 0 -p ack -e 40 -c 2 -a 0 -i 2 -k RTR 
- -t 1.012761424 -s 5 -d 0 -p ack -e 40 -c 2 -a 0 -i 2 -k RTR
h -t 1.012761424 -s 5 -d 0 -p ack -e 40 -c 2 -a 0 -i 2 -k RTR
r -t 1.013051008 -s 0 -d -1 -p ACK -e 38 -c 2 -a 0 -i 0 -k MAC
+ -t 1.013505606 -s 2 -d -1 -p AODV -e 106 -c 2 -a 0 -i 0 -k MAC 
- -t 1.013505606 -s 2 -d -1 -p AODV -e 106 -c 2 -a 0 -i 0 -k MAC
h -t 1.013505606 -s 2 -d -1 -p AODV -e 106 -c 2 -a 0 -i 0 -k MAC
+ -t 1.014297905 -s 5 -d -1 -p AODV -e 48 -c 2 -a 0 -i 0 -k RTR 
- -t 1.014297905 -s 5 -d -1 -p AODV -e 48 -c 2 -a 0 -i 0 -k RTR
h -t 1.014297905 -s 5 -d -1 -p AODV -e 48 -c 2 -a 0 -i 0 -k RTR
r -t 1.014353996 -s 1 -d -1 -p AODV -e 48 -c 2 -a 0 -i 0 -k MAC
r -t 1.014354238 -s 0 -d -1 -p AODV -e 48 -c 2 -a 0 -i 0 -k MAC
r -t 1.014378996 -s 1 -d -1 -p AODV -e 48 -c 2 -a 0 -i 0 -k RTR
r -t 1.014379238 -s 0 -d -1 -p AODV -e 48 -c 2 -a 0 -i 0 -k RTR
+ -t 1.014908449 -s 6 -d -1 -p ARP -e 86 -c 2 -a 0 -i 0 -k MAC 
- -t 1.014908449 -s 6 -d -1 -p ARP -e 86 -c 2 -a 0 -i 0 -k MAC
h -t 1.014908449 -s 6 -d -1 -p ARP -e 86 -c 2 -a 0 -i 0 -k MAC
r -t 1.015596782 -s 4 -d -1 -p ARP -e 28 -c 2 -a 0 -i 0 -k MAC
r -t 1.015597050 -s 1 -d -1 -p ARP -e 28 -c 2 -a 0 -i 0 -k MAC
r -t 1.015597224 -s 3 -d -1 -p ARP -e 28 -c 2 -a 0 -i 0 -k MAC
r -t 1.015597282 -s 0 -d -1 -p ARP -e 28 -c 2 -a 0 -i 0 -k MAC
+ -t 1.015692050 -s 1 -d -1 -p RTS -e 44 -c 2 -a 0 -i 0 -k MAC 
- -t 1.015692050 -s 1 -d -1 -p RTS -e 44 -c 2 -a 0 -i 0 -k MAC
h -t 1.015692050 -s 1 -d -1 -p RTS -e 44 -c 2 -a 0 -i 0 -k MAC
+ -t 1.015850335 -s 4 -d -1 -p AODV -e 48 -c 2 -a 0 -i 0 -k RTR 
- -t 1.015850335 -s 4 -d -1 -p AODV -e 48 -c 2 -a 0 -i 0 -k RTR
h -t 1.015850335 -s 4 -d -1 -p AODV -e 48 -c 2 -a 0 -i 0 -k RTR
r -t 1.016044651 -s 6 -d -1 -p RTS -e 44 -c 2 -a 0 -i 0 -k MAC
+ -t 1.016054651 -s 6 -d -1 -p CTS -e 38 -c 2 -a 0 -i 0 -k MAC 
- -t 1.016054651 -s 6 -d -1 -p CTS -e 38 -c 2 -a 0 -i 0 -k MAC
h -t 1.016054651 -s 6 -d -1 -p CTS -e 38 -c 2 -a 0 -i 0 -k MAC
r -t 1.016359252 -s 1 -d -1 -p CTS -e 38 -c 2 -a 0 -i 0 -k MAC
+ -t 1.016369252 -s 1 -d -1 -p ARP -e 86 -c 2 -a 0 -i 0 -k MAC 
- -t 1.016369252 -s 1 -d -1 -p ARP -e 86 -c 2 -a 0 -i 0 -k MAC
h -t 1.016369252 -s 1 -d -1 -p ARP -e 86 -c 2 -a 0 -i 0 -k MAC
r -t 1.017057853 -s 6 -d -1 -p ARP -e 28 -c 2 -a 0 -i 0 -k MAC
+ -t 1.017067853 -s 6 -d -1 -p ACK -e 38 -c 2 -a 0 -i 0 -k MAC 
- -t 1.017067853 -s 6 -d -1 -p ACK -e 38 -c 2 -a 0 -i 0 -k MAC
h -t 1.017067853 -s 6 -d -1 -p ACK -e 38 -c 2 -a 0 -i 0 -k MAC
r -t 1.017372454 -s 1 -d -1 -p ACK -e 38 -c 2 -a 0 -i 0 -k MAC
+ -t 1.017741853 -s 6 -d -1 -p RTS -e 44 -c 2 -a 0 -i 0 -k MAC 
- -t 1.017741853 -s 6 -d -1 -p RTS -e 44 -c 2 -a 0 -i 0 -k MAC
h -t 1.017741853 -s 6 -d -1 -p RTS -e 44 -c 2 -a 0 -i 0 -k MAC
r -t 1.018094454 -s 1 -d -1 -p RTS -e 44 -c 2 -a 0 -i 0 -k MAC
+ -t 1.018104454 -s 1 -d -1 -p CTS -e 38 -c 2 -a 0 -i 0 -k MAC 
- -t 1.018104454 -s 1 -d -1 -p CTS -e 38 -c 2 -a 0 -i 0 -k MAC
h -t 1.018104454 -s 1 -d -1 -p CTS -e 38 -c 2 -a 0 -i 0 -k MAC
+ -t 1.018112686 -s 3 -d -1 -p AODV -e 48 -c 2 -a 0 -i 0 -k RTR 
- -t 1.018112686 -s 3 -d -1 -p AODV -e 48 -c 2 -a 0 -i 0 -k RTR
h -t 1.018112686 -s 3 -d -1 -p AODV -e 48 -c 2 -a 0 -i 0 -k RTR
r -t 1.018409054 -s 6 -d -1 -p CTS -e 38 -c 2 -a 0 -i 0 -k MAC
+ -t 1.018419054 -s 6 -d 1 -p AODV -e 102 -c 2 -a 0 -i 0 -k MAC 
- -t 1.018419054 -s 6 -d 1 -p AODV -e 102 -c 2 -a 0 -i 0 -k MAC
h -t 1.018419054 -s 6 -d 1 -p AODV -e 102 -c 2 -a 0 -i 0 -k MAC
r -t 1.019235655 -s 1 -d 1 -p AODV -e 44 -c 2 -a 0 -i 0 -k MAC
+ -t 1.019245655 -s 1 -d -1 -p ACK -e 38 -c 2 -a 0 -i 0 -k MAC 
- -t 1.019245655 -s 1 -d -1 -p ACK -e 38 -c 2 -a 0 -i 0 -k MAC
h -t 1.019245655 -s 1 -d -1 -p ACK -e 38 -c 2 -a 0 -i 0 -k MAC
+ -t 1.019260655 -s 1 -d 2 -p AODV -e 44 -c 2 -a 0 -i 0 -k RTR 
- -t 1.019260655 -s 1 -d 2 -p AODV -e 44 -c 2 -a 0 -i 0 -k RTR
h -t 1.019260655 -s 1 -d 2 -p AODV -e 44 -c 2 -a 0 -i 0 -k RTR
r -t 1.019550256 -s 6 -d -1 -p ACK -e 38 -c 2 -a 0 -i 0 -k MAC
+ -t 1.019659655 -s 1 -d -1 -p ARP -e 86 -c 2 -a 0 -i 0 -k MAC 
- -t 1.019659655 -s 1 -d -1 -p ARP -e 86 -c 2 -a 0 -i 0 -k MAC
h -t 1.019659655 -s 1 -d -1 -p ARP -e 86 -c 2 -a 0 -i 0 -k MAC
r -t 1.020347989 -s 0 -d -1 -p ARP -e 28 -c 2 -a 0 -i 0 -k MAC
r -t 1.020348047 -s 2 -d -1 -p ARP -e 28 -c 2 -a 0 -i 0 -k MAC
r -t 1.020348256 -s 6 -d -1 -p ARP -e 28 -c 2 -a 0 -i 0 -k MAC
r -t 1.020348462 -s 5 -d -1 -p ARP -e 28 -c 2 -a 0 -i 0 -k MAC
+ -t 1.020438047 -s 2 -d -1 -p RTS -e 44 -c 2 -a 0 -i 0 -k MAC 
- -t 1.020438047 -s 2 -d -1 -p RTS -e 44 -c 2 -a 0 -i 0 -k MAC
h -t 1.020438047 -s 2 -d -1 -p RTS -e 44 -c 2 -a 0 -i 0 -k MAC
+ -t 1.020438462 -s 5 -d -1 -p RTS -e 44 -c 2 -a 0 -i 0 -k MAC 
- -t 1.020438462 -s 5 -d -1 -p RTS -e 44 -c 2 -a 0 -i 0 -k MAC
h -t 1.020438462 -s 5 -d -1 -p RTS -e 44 -c 2 -a 0 -i 0 -k MAC
r -t 1.020790439 -s 1 -d -1 -p RTS -e 44 -c 2 -a 0 -i 0 -k MAC
d -t 1.020791045 -s 0 -d -1 -p RTS -e 44 -c 2 -a 0 -i 0 -k MAC
+ -t 1.021205645 -s 2 -d -1 -p RTS -e 44 -c 2 -a 0 -i 0 -k MAC 
- -t 1.021205645 -s 2 -d -1 -p RTS -e 44 -c 2 -a 0 -i 0 -k MAC
h -t 1.021205645 -s 2 -d -1 -p RTS -e 44 -c 2 -a 0 -i 0 -k MAC
r -t 1.021558037 -s 1 -d -1 -p RTS -e 44 -c 2 -a 0 -i 0 -k MAC
+ -t 1.021568037 -s 1 -d -1 -p CTS -e 38 -c 2 -a 0 -i 0 -k MAC 
- -t 1.021568037 -s 1 -d -1 -p CTS -e 38 -c 2 -a 0 -i 0 -k MAC
h -t 1.021568037 -s 1 -d -1 -p CTS -e 38 -c 2 -a 0 -i 0 -k MAC
r -t 1.021872429 -s 2 -d -1 -p CTS -e 38 -c 2 -a 0 -i 0 -k MAC
+ -t 1.021882429 -s 2 -d -1 -p ARP -e 86 -c 2 -a 0 -i 0 -k MAC 
- -t 1.021882429 -s 2 -d -1 -p ARP -e 86 -c 2 -a 0 -i 0 -k MAC
h -t 1.021882429 -s 2 -d -1 -p ARP -e 86 -c 2 -a 0 -i 0 -k MAC
r -t 1.022570821 -s 1 -d -1 -p ARP -e 28 -c 2 -a 0 -i 0 -k MAC
+ -t 1.022580821 -s 1 -d -1 -p ACK -e 38 -c 2 -a 0 -i 0 -k MAC 
- -t 1.022580821 -s 1 -d -1 -p ACK -e 38 -c 2 -a 0 -i 0 -k MAC
h -t 1.022580821 -s 1 -d -1 -p ACK -e 38 -c 2 -a 0 -i 0 -k MAC
r -t 1.022885213 -s 2 -d -1 -p ACK -e 38 -c 2 -a 0 -i 0 -k MAC
+ -t 1.023174821 -s 1 -d -1 -p RTS -e 44 -c 2 -a 0 -i 0 -k MAC 
- -t 1.023174821 -s 1 -d -1 -p RTS -e 44 -c 2 -a 0 -i 0 -k MAC
h -t 1.023174821 -s 1 -d -1 -p RTS -e 44 -c 2 -a 0 -i 0 -k MAC
r -t 1.023527213 -s 2 -d -1 -p RTS -e 44 -c 2 -a 0 -i 0 -k MAC
+ -t 1.023537213 -s 2 -d -1 -p CTS -e 38 -c 2 -a 0 -i 0 -k MAC 
- -t 1.023537213 -s 2 -d -1 -p CTS -e 38 -c 2 -a 0 -i 0 -k MAC
h -t 1.023537213 -s 2 -d -1 -p CTS -e 38 -c 2 -a 0 -i 0 -k MAC
r -t 1.023841605 -s 1 -d -1 -p CTS -e 38 -c 2 -a 0 -i 0 -k MAC
+ -t 1.023851605 -s 1 -d 2 -p AODV -e 102 -c 2 -a 0 -i 0 -k MAC 
- -t 1.023851605 -s 1 -d 2 -p AODV -e 102 -c 2 -a 0 -i 0 -k MAC
h -t 1.023851605 -s 1 -d 2 -p AODV -e 102 -c 2 -a 0 -i 0 -k MAC
r -t 1.024667997 -s 2 -d 2 -p AODV -e 44 -c 2 -a 0 -i 0 -k MAC
+ -t 1.024677997 -s 2 -d -1 -p ACK -e 38 -c 2 -a 0 -i 0 -k MAC 
- -t 1.024677997 -s 2 -d -1 -p ACK -e 38 -c 2 -a 0 -i 0 -k MAC
h -t 1.024677997 -s 2 -d -1 -p ACK -e 38 -c 2 -a 0 -i 0 -k MAC
+ -t 1.024692997 -s 2 -d 1 -p tcp -e 40 -c 2 -a 0 -i 1 -k RTR 
- -t 1.024692997 -s 2 -d 1 -p tcp -e 40 -c 2 -a 0 -i 1 -k RTR
h -t 1.024692997 -s 2 -d 1 -p tcp -e 40 -c 2 -a 0 -i 1 -k RTR
r -t 1.024982390 -s 1 -d -1 -p ACK -e 38 -c 2 -a 0 -i 0 -k MAC
+ -t 1.025311997 -s 2 -d -1 -p RTS -e 44 -c 2 -a 0 -i 0 -k MAC 
- -t 1.025311997 -s 2 -d -1 -p RTS -e 44 -c 2 -a 0 -i 0 -k MAC
h -t 1.025311997 -s 2 -d -1 -p RTS -e 44 -c 2 -a 0 -i 0 -k MAC
r -t 1.025664390 -s 1 -d -1 -p RTS -e 44 -c 2 -a 0 -i 0 -k MAC
+ -t 1.025674390 -s 1 -d -1 -p CTS -e 38 -c 2 -a 0 -i 0 -k MAC 
- -t 1.025674390 -s 1 -d -1 -p CTS -e 38 -c 2 -a 0 -i 0 -k MAC
h -t 1.025674390 -s 1 -d -1 -p CTS -e 38 -c 2 -a 0 -i 0 -k MAC
r -t 1.025978782 -s 2 -d -1 -p CTS -e 38 -c 2 -a 0 -i 0 -k MAC
+ -t 1.025988782 -s 2 -d 1 -p tcp -e 98 -c 2 -a 0 -i 1 -k MAC 
- -t 1.025988782 -s 2 -d 1 -p tcp -e 98 -c 2 -a 0 -i 1 -k MAC
h -t 1.025988782 -s 2 -d 1 -p tcp -e 98 -c 2 -a 0 -i 1 -k MAC
r -t 1.026773175 -s 1 -d 1 -p tcp -e 40 -c 2 -a 0 -i 1 -k MAC
+ -t 1.026783175 -s 1 -d -1 -p ACK -e 38 -c 2 -a 0 -i 0 -k MAC 
- -t 1.026783175 -s 1 -d -1 -p ACK -e 38 -c 2 -a 0 -i 0 -k MAC
h -t 1.026783175 -s 1 -d -1 -p ACK -e 38 -c 2 -a 0 -i 0 -k MAC
+ -t 1.026798175 -s 1 -d 6 -p tcp -e 40 -c 2 -a 0 -i 1 -k RTR 
- -t 1.026798175 -s 1 -d 6 -p tcp -e 40 -c 2 -a 0 -i 1 -k RTR
h -t 1.026798175 -s 1 -d 6 -p tcp -e 40 -c 2 -a 0 -i 1 -k RTR
r -t 1.027087567 -s 2 -d -1 -p ACK -e 38 -c 2 -a 0 -i 0 -k MAC
+ -t 1.027337175 -s 1 -d -1 -p RTS -e 44 -c 2 -a 0 -i 0 -k MAC 
- -t 1.027337175 -s 1 -d -1 -p RTS -e 44 -c 2 -a 0 -i 0 -k MAC
h -t 1.027337175 -s 1 -d -1 -p RTS -e 44 -c 2 -a 0 -i 0 -k MAC
r -t 1.027689776 -s 6 -d -1 -p RTS -e 44 -c 2 -a 0 -i 0 -k MAC
+ -t 1.027699776 -s 6 -d -1 -p CTS -e 38 -c 2 -a 0 -i 0 -k MAC 
- -t 1.027699776 -s 6 -d -1 -p CTS -e 38 -c 2 -a 0 -i 0 -k MAC
h -t 1.027699776 -s 6 -d -1 -p CTS -e 38 -c 2 -a 0 -i 0 -k MAC
r -t 1.028004377 -s 1 -d -1 -p CTS -e 38 -c 2 -a 0 -i 0 -k MAC
+ -t 1.028014377 -s 1 -d 6 -p tcp -e 98 -c 2 -a 0 -i 1 -k MAC 
- -t 1.028014377 -s 1 -d 6 -p tcp -e 98 -c 2 -a 0 -i 1 -k MAC
h -t 1.028014377 -s 1 -d 6 -p tcp -e 98 -c 2 -a 0 -i 1 -k MAC
r -t 1.028798978 -s 6 -d 6 -p tcp -e 40 -c 2 -a 0 -i 1 -k MAC
+ -t 1.028808978 -s 6 -d -1 -p ACK -e 38 -c 2 -a 0 -i 0 -k MAC 
- -t 1.028808978 -s 6 -d -1 -p ACK -e 38 -c 2 -a 0 -i 0 -k MAC
h -t 1.028808978 -s 6 -d -1 -p ACK -e 38 -c 2 -a 0 -i 0 -k MAC
r -t 1.028823978 -s 6 -d 6 -p tcp -e 40 -c 2 -a 0 -i 1 -k AGT
+ -t 1.028823978 -s 6 -d -1 -p ack -e 40 -c 2 -a 0 -i 3 -k AGT 
- -t 1.028823978 -s 6 -d -1 -p ack -e 40 -c 2 -a 0 -i 3 -k AGT
h -t 1.028823978 -s 6 -d -1 -p ack -e 40 -c 2 -a 0 -i 3 -k AGT
+ -t 1.028823978 -s 6 -d 1 -p ack -e 40 -c 2 -a 0 -i 3 -k RTR 
- -t 1.028823978 -s 6 -d 1 -p ack -e 40 -c 2 -a 0 -i 3 -k RTR
h -t 1.028823978 -s 6 -d 1 -p ack -e 40 -c 2 -a 0 -i 3 -k RTR
r -t 1.029113578 -s 1 -d -1 -p ACK -e 38 -c 2 -a 0 -i 0 -k MAC
+ -t 1.029222978 -s 6 -d -1 -p RTS -e 44 -c 2 -a 0 -i 0 -k MAC 
- -t 1.029222978 -s 6 -d -1 -p RTS -e 44 -c 2 -a 0 -i 0 -k MAC
h -t 1.029222978 -s 6 -d -1 -p RTS -e 44 -c 2 -a 0 -i 0 -k MAC
r -t 1.029575578 -s 1 -d -1 -p RTS -e 44 -c 2 -a 0 -i 0 -k MAC
+ -t 1.029585578 -s 1 -d -1 -p CTS -e 38 -c 2 -a 0 -i 0 -k MAC 
- -t 1.029585578 -s 1 -d -1 -p CTS -e 38 -c 2 -a 0 -i 0 -k MAC
h -t 1.029585578 -s 1 -d -1 -p CTS -e 38 -c 2 -a 0 -i 0 -k MAC
r -t 1.029890179 -s 6 -d -1 -p CTS -e 38 -c 2 -a 0 -i 0 -k MAC
+ -t 1.029900179 -s 6 -d 1 -p ack -e 98 -c 2 -a 0 -i 3 -k MAC 
- -t 1.029900179 -s 6 -d 1 -p ack -e 98 -c 2 -a 0 -i 3 -k MAC
h -t 1.029900179 -s 6 -d 1 -p ack -e 98 -c 2 -a 0 -i 3 -k MAC
r -t 1.030684780 -s 1 -d 1 -p ack -e 40 -c 2 -a 0 -i 3 -k MAC
+ -t 1.030694780 -s 1 -d -1 -p ACK -e 38 -c 2 -a 0 -i 0 -k MAC 
- -t 1.030694780 -s 1 -d -1 -p ACK -e 38 -c 2 -a 0 -i 0 -k MAC
h -t 1.030694780 -s 1 -d -1 -p ACK -e 38 -c 2 -a 0 -i 0 -k MAC
+ -t 1.030709780 -s 1 -d 2 -p ack -e 40 -c 2 -a 0 -i 3 -k RTR 
- -t 1.030709780 -s 1 -d 2 -p ack -e 40 -c 2 -a 0 -i 3 -k RTR
h -t 1.030709780 -s 1 -d 2 -p ack -e 40 -c 2 -a 0 -i 3 -k RTR
r -t 1.030999381 -s 6 -d -1 -p ACK -e 38 -c 2 -a 0 -i 0 -k MAC
+ -t 1.031128780 -s 1 -d -1 -p RTS -e 44 -c 2 -a 0 -i 0 -k MAC 
- -t 1.031128780 -s 1 -d -1 -p RTS -e 44 -c 2 -a 0 -i 0 -k MAC
h -t 1.031128780 -s 1 -d -1 -p RTS -e 44 -c 2 -a 0 -i 0 -k MAC
r -t 1.031481174 -s 2 -d -1 -p RTS -e 44 -c 2 -a 0 -i 0 -k MAC
+ -t 1.031491174 -s 2 -d -1 -p CTS -e 38 -c 2 -a 0 -i 0 -k MAC 
- -t 1.031491174 -s 2 -d -1 -p CTS -e 38 -c 2 -a 0 -i 0 -k MAC
h -t 1.031491174 -s 2 -d -1 -p CTS -e 38 -c 2 -a 0 -i 0 -k MAC
r -t 1.031795567 -s 1 -d -1 -p CTS -e 38 -c 2 -a 0 -i 0 -k MAC
+ -t 1.031805567 -s 1 -d 2 -p ack -e 98 -c 2 -a 0 -i 3 -k MAC 
- -t 1.031805567 -s 1 -d 2 -p ack -e 98 -c 2 -a 0 -i 3 -k MAC
h -t 1.031805567 -s 1 -d 2 -p ack -e 98 -c 2 -a 0 -i 3 -k MAC
r -t 1.032589961 -s 2 -d 2 -p ack -e 40 -c 2 -a 0 -i 3 -k MAC
+ -t 1.032599961 -s 2 -d -1 -p ACK -e 38 -c 2 -a 0 -i 0 -k MAC 
- -t 1.032599961 -s 2 -d -1 -p ACK -e 38 -c 2 -a 0 -i 0 -k MAC
h -t 1.032599961 -s 2 -d -1 -p ACK -e 38 -c 2 -a 0 -i 0 -k MAC
r -t 1.032614961 -s 2 -d 2 -p ack -e 40 -c 2 -a 0 -i 3 -k AGT
+ -t 1.032614961 -s 2 -d -1 -p tcp -e 1040 -c 2 -a 0 -i 4 -k AGT 
- -t 1.032614961 -s 2 -d -1 -p tcp -e 1040 -c 2 -a 0 -i 4 -k AGT
h -t 1.032614961 -s 2 -d -1 -p tcp -e 1040 -c 2 -a 0 -i 4 -k AGT
+ -t 1.032614961 -s 2 -d -1 -p tcp -e 1040 -c 2 -a 0 -i 5 -k AGT 
- -t 1.032614961 -s 2 -d -1 -p tcp -e 1040 -c 2 -a 0 -i 5 -k AGT
h -t 1.032614961 -s 2 -d -1 -p tcp -e 1040 -c 2 -a 0 -i 5 -k AGT
+ -t 1.032614961 -s 2 -d 1 -p tcp -e 1040 -c 2 -a 0 -i 4 -k RTR 
- -t 1.032614961 -s 2 -d 1 -p tcp -e 1040 -c 2 -a 0 -i 4 -k RTR
h -t 1.032614961 -s 2 -d 1 -p tcp -e 1040 -c 2 -a 0 -i 4 -k RTR
+ -t 1.032614961 -s 2 -d 1 -p tcp -e 1040 -c 2 -a 0 -i 5 -k RTR 
- -t 1.032614961 -s 2 -d 1 -p tcp -e 1040 -c 2 -a 0 -i 5 -k RTR
h -t 1.032614961 -s 2 -d 1 -p tcp -e 1040 -c 2 -a 0 -i 5 -k RTR
r -t 1.032904354 -s 1 -d -1 -p ACK -e 38 -c 2 -a 0 -i 0 -k MAC
+ -t 1.033313961 -s 2 -d -1 -p RTS -e 44 -c 2 -a 0 -i 0 -k MAC 
- -t 1.033313961 -s 2 -d -1 -p RTS -e 44 -c 2 -a 0 -i 0 -k MAC
h -t 1.033313961 -s 2 -d -1 -p RTS -e 44 -c 2 -a 0 -i 0 -k MAC
r -t 1.033666354 -s 1 -d -1 -p RTS -e 44 -c 2 -a 0 -i 0 -k MAC
+ -t 1.033676354 -s 1 -d -1 -p CTS -e 38 -c 2 -a 0 -i 0 -k MAC 
- -t 1.033676354 -s 1 -d -1 -p CTS -e 38 -c 2 -a 0 -i 0 -k MAC
h -t 1.033676354 -s 1 -d -1 -p CTS -e 38 -c 2 -a 0 -i 0 -k MAC
r -t 1.033980748 -s 2 -d -1 -p CTS -e 38 -c 2 -a 0 -i 0 -k MAC
+ -t 1.033990748 -s 2 -d 1 -p tcp -e 1098 -c 2 -a 0 -i 4 -k MAC 
- -t 1.033990748 -s 2 -d 1 -p tcp -e 1098 -c 2 -a 0 -i 4 -k MAC
h -t 1.033990748 -s 2 -d 1 -p tcp -e 1098 -c 2 -a 0 -i 4 -k MAC
r -t 1.042775142 -s 1 -d 1 -p tcp -e 1040 -c 2 -a 0 -i 4 -k MAC
+ -t 1.042785142 -s 1 -d -1 -p ACK -e 38 -c 2 -a 0 -i 0 -k MAC 
- -t 1.042785142 -s 1 -d -1 -p ACK -e 38 -c 2 -a 0 -i 0 -k MAC
h -t 1.042785142 -s 1 -d -1 -p ACK -e 38 -c 2 -a 0 -i 0 -k MAC
+ -t 1.042800142 -s 1 -d 6 -p tcp -e 1040 -c 2 -a 0 -i 4 -k RTR 
- -t 1.042800142 -s 1 -d 6 -p tcp -e 1040 -c 2 -a 0 -i 4 -k RTR
h -t 1.042800142 -s 1 -d 6 -p tcp -e 1040 -c 2 -a 0 -i 4 -k RTR
r -t 1.043089537 -s 2 -d -1 -p ACK -e 38 -c 2 -a 0 -i 0 -k MAC
+ -t 1.043279142 -s 1 -d -1 -p RTS -e 44 -c 2 -a 0 -i 0 -k MAC 
- -t 1.043279142 -s 1 -d -1 -p RTS -e 44 -c 2 -a 0 -i 0 -k MAC
h -t 1.043279142 -s 1 -d -1 -p RTS -e 44 -c 2 -a 0 -i 0 -k MAC
r -t 1.043631743 -s 6 -d -1 -p RTS -e 44 -c 2 -a 0 -i 0 -k MAC
+ -t 1.043641743 -s 6 -d -1 -p CTS -e 38 -c 2 -a 0 -i 0 -k MAC 
- -t 1.043641743 -s 6 -d -1 -p CTS -e 38 -c 2 -a 0 -i 0 -k MAC
h -t 1.043641743 -s 6 -d -1 -p CTS -e 38 -c 2 -a 0 -i 0 -k MAC
r -t 1.043946344 -s 1 -d -1 -p CTS -e 38 -c 2 -a 0 -i 0 -k MAC
+ -t 1.043956344 -s 1 -d 6 -p tcp -e 1098 -c 2 -a 0 -i 4 -k MAC 
- -t 1.043956344 -s 1 -d 6 -p tcp -e 1098 -c 2 -a 0 -i 4 -k MAC
h -t 1.043956344 -s 1 -d 6 -p tcp -e 1098 -c 2 -a 0 -i 4 -k MAC
r -t 1.052740944 -s 6 -d 6 -p tcp -e 1040 -c 2 -a 0 -i 4 -k MAC
+ -t 1.052750944 -s 6 -d -1 -p ACK -e 38 -c 2 -a 0 -i 0 -k MAC 
- -t 1.052750944 -s 6 -d -1 -p ACK -e 38 -c 2 -a 0 -i 0 -k MAC
h -t 1.052750944 -s 6 -d -1 -p ACK -e 38 -c 2 -a 0 -i 0 -k MAC
r -t 1.052765944 -s 6 -d 6 -p tcp -e 1040 -c 2 -a 0 -i 4 -k AGT
+ -t 1.052765944 -s 6 -d -1 -p ack -e 40 -c 2 -a 0 -i 6 -k AGT 
- -t 1.052765944 -s 6 -d -1 -p ack -e 40 -c 2 -a 0 -i 6 -k AGT
h -t 1.052765944 -s 6 -d -1 -p ack -e 40 -c 2 -a 0 -i 6 -k AGT
+ -t 1.052765944 -s 6 -d 1 -p ack -e 40 -c 2 -a 0 -i 6 -k RTR 
- -t 1.052765944 -s 6 -d 1 -p ack -e 40 -c 2 -a 0 -i 6 -k RTR
h -t 1.052765944 -s 6 -d 1 -p ack -e 40 -c 2 -a 0 -i 6 -k RTR
r -t 1.053055545 -s 1 -d -1 -p ACK -e 38 -c 2 -a 0 -i 0 -k MAC
+ -t 1.053195241 -s 4 -d -1 -p AODV -e 106 -c 2 -a 0 -i 0 -k MAC 
- -t 1.053195241 -s 4 -d -1 -p AODV -e 106 -c 2 -a 0 -i 0 -k MAC
h -t 1.053195241 -s 4 -d -1 -p AODV -e 106 -c 2 -a 0 -i 0 -k MAC
r -t 1.054043574 -s 6 -d -1 -p AODV -e 48 -c 2 -a 0 -i 0 -k MAC
r -t 1.054043941 -s 3 -d -1 -p AODV -e 48 -c 2 -a 0 -i 0 -k MAC
r -t 1.054068574 -s 6 -d -1 -p AODV -e 48 -c 2 -a 0 -i 0 -k RTR
r -t 1.054068941 -s 3 -d -1 -p AODV -e 48 -c 2 -a 0 -i 0 -k RTR
+ -t 1.054193941 -s 3 -d -1 -p AODV -e 106 -c 2 -a 0 -i 0 -k MAC 
- -t 1.054193941 -s 3 -d -1 -p AODV -e 106 -c 2 -a 0 -i 0 -k MAC
h -t 1.054193941 -s 3 -d -1 -p AODV -e 106 -c 2 -a 0 -i 0 -k MAC
r -t 1.055042368 -s 5 -d -1 -p AODV -e 48 -c 2 -a 0 -i 0 -k MAC
r -t 1.055042641 -s 4 -d -1 -p AODV -e 48 -c 2 -a 0 -i 0 -k MAC
r -t 1.055042716 -s 6 -d -1 -p AODV -e 48 -c 2 -a 0 -i 0 -k MAC
r -t 1.055067368 -s 5 -d -1 -p AODV -e 48 -c 2 -a 0 -i 0 -k RTR
r -t 1.055067641 -s 4 -d -1 -p AODV -e 48 -c 2 -a 0 -i 0 -k RTR
r -t 1.055067716 -s 6 -d -1 -p AODV -e 48 -c 2 -a 0 -i 0 -k RTR
+ -t 1.055112716 -s 6 -d -1 -p RTS -e 44 -c 2 -a 0 -i 0 -k MAC 
- -t 1.055112716 -s 6 -d -1 -p RTS -e 44 -c 2 -a 0 -i 0 -k MAC
h -t 1.055112716 -s 6 -d -1 -p RTS -e 44 -c 2 -a 0 -i 0 -k MAC
r -t 1.055465317 -s 1 -d -1 -p RTS -e 44 -c 2 -a 0 -i 0 -k MAC
+ -t 1.055475317 -s 1 -d -1 -p CTS -e 38 -c 2 -a 0 -i 0 -k MAC 
- -t 1.055475317 -s 1 -d -1 -p CTS -e 38 -c 2 -a 0 -i 0 -k MAC
h -t 1.055475317 -s 1 -d -1 -p CTS -e 38 -c 2 -a 0 -i 0 -k MAC
r -t 1.055779918 -s 6 -d -1 -p CTS -e 38 -c 2 -a 0 -i 0 -k MAC
+ -t 1.055789918 -s 6 -d 1 -p ack -e 98 -c 2 -a 0 -i 6 -k MAC 
- -t 1.055789918 -s 6 -d 1 -p ack -e 98 -c 2 -a 0 -i 6 -k MAC
h -t 1.055789918 -s 6 -d 1 -p ack -e 98 -c 2 -a 0 -i 6 -k MAC
r -t 1.056574519 -s 1 -d 1 -p ack -e 40 -c 2 -a 0 -i 6 -k MAC
+ -t 1.056584519 -s 1 -d -1 -p ACK -e 38 -c 2 -a 0 -i 0 -k MAC 
- -t 1.056584519 -s 1 -d -1 -p ACK -e 38 -c 2 -a 0 -i 0 -k MAC
h -t 1.056584519 -s 1 -d -1 -p ACK -e 38 -c 2 -a 0 -i 0 -k MAC
+ -t 1.056599519 -s 1 -d 2 -p ack -e 40 -c 2 -a 0 -i 6 -k RTR 
- -t 1.056599519 -s 1 -d 2 -p ack -e 40 -c 2 -a 0 -i 6 -k RTR
h -t 1.056599519 -s 1 -d 2 -p ack -e 40 -c 2 -a 0 -i 6 -k RTR
r -t 1.056889120 -s 6 -d -1 -p ACK -e 38 -c 2 -a 0 -i 0 -k MAC
+ -t 1.057038519 -s 1 -d -1 -p RTS -e 44 -c 2 -a 0 -i 0 -k MAC 
- -t 1.057038519 -s 1 -d -1 -p RTS -e 44 -c 2 -a 0 -i 0 -k MAC
h -t 1.057038519 -s 1 -d -1 -p RTS -e 44 -c 2 -a 0 -i 0 -k MAC
r -t 1.057390916 -s 2 -d -1 -p RTS -e 44 -c 2 -a 0 -i 0 -k MAC
+ -t 1.057400916 -s 2 -d -1 -p CTS -e 38 -c 2 -a 0 -i 0 -k MAC 
- -t 1.057400916 -s 2 -d -1 -p CTS -e 38 -c 2 -a 0 -i 0 -k MAC
h -t 1.057400916 -s 2 -d -1 -p CTS -e 38 -c 2 -a 0 -i 0 -k MAC
r -t 1.057705314 -s 1 -d -1 -p CTS -e 38 -c 2 -a 0 -i 0 -k MAC
+ -t 1.057715314 -s 1 -d 2 -p ack -e 98 -c 2 -a 0 -i 6 -k MAC 
- -t 1.057715314 -s 1 -d 2 -p ack -e 98 -c 2 -a 0 -i 6 -k MAC
h -t 1.057715314 -s 1 -d 2 -p ack -e 98 -c 2 -a 0 -i 6 -k MAC
r -t 1.058499711 -s 2 -d 2 -p ack -e 40 -c 2 -a 0 -i 6 -k MAC
+ -t 1.058509711 -s 2 -d -1 -p ACK -e 38 -c 2 -a 0 -i 0 -k MAC 
- -t 1.058509711 -s 2 -d -1 -p ACK -e 38 -c 2 -a 0 -i 0 -k MAC
h -t 1.058509711 -s 2 -d -1 -p ACK -e 38 -c 2 -a 0 -i 0 -k MAC
r -t 1.058524711 -s 2 -d 2 -p ack -e 40 -c 2 -a 0 -i 6 -k AGT
+ -t 1.058524711 -s 2 -d -1 -p tcp -e 1040 -c 2 -a 0 -i 7 -k AGT 
- -t 1.058524711 -s 2 -d -1 -p tcp -e 1040 -c 2 -a 0 -i 7 -k AGT
h -t 1.058524711 -s 2 -d -1 -p tcp -e 1040 -c 2 -a 0 -i 7 -k AGT
+ -t 1.058524711 -s 2 -d -1 -p tcp -e 1040 -c 2 -a 0 -i 8 -k AGT 