M 0.00000 4194305 (433.19, 86.81, 0.00), (533.98, 316.26), 10.42
M 0.00000 4196353 (182.15, 589.46, 0.00), (161.81, 443.17), 10.92
M 0.00000 4196354 (636.71, 227.79, 0.00), (639.91, 171.36), 15.32
M 0.00000 4196355 (355.73, 636.86, 0.00), (542.67, 413.38), 12.55
M 0.00000 4198401 (412.57, 140.39, 0.00), (498.26, 244.65), 14.90
M 0.00000 4198402 (192.50, 389.17, 0.00), (597.55, 123.93), 16.98
s 160.000000000 _5_ AGT  --- 168 tcp 1000 [0 0 0 0] ------- [4194305:0 0:0 32 0] [0 0] 0 0
+ 160.025734 3 1 tcp 1020 ------- 2 1.0.1.0 0.0.0.0 0 168
- 160.025734 3 1 tcp 1020 ------- 2 1.0.1.0 0.0.0.0 0 168
r 160.029278 3 1 tcp 1020 ------- 2 1.0.1.0 0.0.0.0 0 168
+ 160.029278 1 0 tcp 1020 ------- 2 1.0.1.0 0.0.0.0 0 168
- 160.029278 1 0 tcp 1020 ------- 2 1.0.1.0 0.0.0.0 0 168
r 160.03291 1 0 tcp 1020 ------- 2 1.0.1.0 0.0.0.0 0 168
+ 160.03291 0 1 ack 40 ------- 2 0.0.0.0 1.0.1.0 0 169
- 160.03291 0 1 ack 40 ------- 2 0.0.0.0 1.0.1.0 0 169
r 160.034974 0 1 ack 40 ------- 2 0.0.0.0 1.0.1.0 0 169
+ 160.034974 1 4 ack 40 ------- 2 0.0.0.0 1.0.1.0 0 169
- 160.034974 1 4 ack 40 ------- 2 0.0.0.0 1.0.1.0 0 169
r 160.038038 1 4 ack 40 ------- 2 0.0.0.0 1.0.1.0 0 169
r 160.047143807 _5_ AGT  --- 169 ack 40 [13a 3 7 800] ------- [0:0 4194305:0 27 4194305] [0 0] 3 0
s 160.047143807 _5_ AGT  --- 170 tcp 1000 [0 0 0 0] ------- [4194305:0 0:0 32 0] [1 0] 0 0
+ 160.067295 3 1 tcp 1020 ------- 2 1.0.1.0 0.0.0.0 1 170
- 160.067295 3 1 tcp 1020 ------- 2 1.0.1.0 0.0.0.0 1 170
r 160.070839 3 1 tcp 1020 ------- 2 1.0.1.0 0.0.0.0 1 170
+ 160.070839 1 0 tcp 1020 ------- 2 1.0.1.0 0.0.0.0 1 170
- 160.070839 1 0 tcp 1020 ------- 2 1.0.1.0 0.0.0.0 1 170
r 160.074471 1 0 tcp 1020 ------- 2 1.0.1.0 0.0.0.0 1 170
+ 160.074471 0 1 ack 40 ------- 2 0.0.0.0 1.0.1.0 1 171
- 160.074471 0 1 ack 40 ------- 2 0.0.0.0 1.0.1.0 1 171
r 160.076535 0 1 ack 40 ------- 2 0.0.0.0 1.0.1.0 1 171
+ 160.076535 1 4 ack 40 ------- 2 0.0.0.0 1.0.1.0 1 171
- 160.076535 1 4 ack 40 ------- 2 0.0.0.0 1.0.1.0 1 171
r 160.079599 1 4 ack 40 ------- 2 0.0.0.0 1.0.1.0 1 171
r 160.085552030 _5_ AGT  --- 171 ack 40 [13a 3 7 800] ------- [0:0 4194305:0 27 4194305] [1 0] 3 0
s 160.085552030 _5_ AGT  --- 172 tcp 1000 [0 0 0 0] ------- [4194305:0 0:0 32 0] [2 0] 0 0
s 160.085552030 _5_ AGT  --- 173 tcp 1000 [0 0 0 0] ------- [4194305:0 0:0 32 0] [3 0] 0 0
s 160.085552030 _5_ AGT  --- 174 tcp 1000 [0 0 0 0] ------- [4194305:0 0:0 32 0] [4 0] 0 0
+ 160.115228 3 1 tcp 1020 ------- 2 1.0.1.0 0.0.0.0 2 172
- 160.115228 3 1 tcp 1020 ------- 2 1.0.1.0 0.0.0.0 2 172
r 160.118772 3 1 tcp 1020 ------- 2 1.0.1.0 0.0.0.0 2 172
+ 160.118772 1 0 tcp 1020 ------- 2 1.0.1.0 0.0.0.0 2 172
- 160.118772 1 0 tcp 1020 ------- 2 1.0.1.0 0.0.0.0 2 172
r 160.122404 1 0 tcp 1020 ------- 2 1.0.1.0 0.0.0.0 2 172
+ 160.122404 0 1 ack 40 ------- 2 0.0.0.0 1.0.1.0 2 175
- 160.122404 0 1 ack 40 ------- 2 0.0.0.0 1.0.1.0 2 175
r 160.124468 0 1 ack 40 ------- 2 0.0.0.0 1.0.1.0 2 175
+ 160.124468 1 4 ack 40 ------- 2 0.0.0.0 1.0.1.0 2 175
- 160.124468 1 4 ack 40 ------- 2 0.0.0.0 1.0.1.0 2 175
+ 160.125336 3 1 tcp 1020 ------- 2 1.0.1.0 0.0.0.0 3 173
- 160.125336 3 1 tcp 1020 ------- 2 1.0.1.0 0.0.0.0 3 173
r 160.127532 1 4 ack 40 ------- 2 0.0.0.0 1.0.1.0 2 175
r 160.12888 3 1 tcp 1020 ------- 2 1.0.1.0 0.0.0.0 3 173
+ 160.12888 1 0 tcp 1020 ------- 2 1.0.1.0 0.0.0.0 3 173
- 160.12888 1 0 tcp 1020 ------- 2 1.0.1.0 0.0.0.0 3 173
r 160.132512 1 0 tcp 1020 ------- 2 1.0.1.0 0.0.0.0 3 173
+ 160.132512 0 1 ack 40 ------- 2 0.0.0.0 1.0.1.0 3 176
- 160.132512 0 1 ack 40 ------- 2 0.0.0.0 1.0.1.0 3 176
r 160.134576 0 1 ack 40 ------- 2 0.0.0.0 1.0.1.0 3 176
+ 160.134576 1 4 ack 40 ------- 2 0.0.0.0 1.0.1.0 3 176
- 160.134576 1 4 ack 40 ------- 2 0.0.0.0 1.0.1.0 3 176
r 160.13764 1 4 ack 40 ------- 2 0.0.0.0 1.0.1.0 3 176
+ 160.145632 3 1 tcp 1020 ------- 2 1.0.1.0 0.0.0.0 4 174
- 160.145632 3 1 tcp 1020 ------- 2 1.0.1.0 0.0.0.0 4 174
r 160.149176 3 1 tcp 1020 ------- 2 1.0.1.0 0.0.0.0 4 174
+ 160.149176 1 0 tcp 1020 ------- 2 1.0.1.0 0.0.0.0 4 174
- 160.149176 1 0 tcp 1020 ------- 2 1.0.1.0 0.0.0.0 4 174
r 160.152808 1 0 tcp 1020 ------- 2 1.0.1.0 0.0.0.0 4 174
+ 160.152808 0 1 ack 40 ------- 2 0.0.0.0 1.0.1.0 4 177
- 160.152808 0 1 ack 40 ------- 2 0.0.0.0 1.0.1.0 4 177
r 160.154005610 _5_ AGT  --- 175 ack 40 [13a 3 7 800] ------- [0:0 4194305:0 27 4194305] [2 0] 3 0
s 160.154005610 _5_ AGT  --- 178 tcp 1000 [0 0 0 0] ------- [4194305:0 0:0 32 0] [5 0] 0 0
r 160.154872 0 1 ack 40 ------- 2 0.0.0.0 1.0.1.0 4 177
+ 160.154872 1 4 ack 40 ------- 2 0.0.0.0 1.0.1.0 4 177
- 160.154872 1 4 ack 40 ------- 2 0.0.0.0 1.0.1.0 4 177
r 160.157936 1 4 ack 40 ------- 2 0.0.0.0 1.0.1.0 4 177
+ 160.175514 3 1 tcp 1020 ------- 2 1.0.1.0 0.0.0.0 5 178
- 160.175514 3 1 tcp 1020 ------- 2 1.0.1.0 0.0.0.0 5 178
r 160.177699709 _5_ AGT  --- 176 ack 40 [13a 3 7 800] ------- [0:0 4194305:0 27 4194305] [3 0] 3 0
s 160.177699709 _5_ AGT  --- 179 tcp 1000 [0 0 0 0] ------- [4194305:0 0:0 32 0] [6 0] 0 0
r 160.179058 3 1 tcp 1020 ------- 2 1.0.1.0 0.0.0.0 5 178
+ 160.179058 1 0 tcp 1020 ------- 2 1.0.1.0 0.0.0.0 5 178
- 160.179058 1 0 tcp 1020 ------- 2 1.0.1.0 0.0.0.0 5 178
r 160.18269 1 0 tcp 1020 ------- 2 1.0.1.0 0.0.0.0 5 178
+ 160.18269 0 1 ack 40 ------- 2 0.0.0.0 1.0.1.0 5 180
- 160.18269 0 1 ack 40 ------- 2 0.0.0.0 1.0.1.0 5 180
r 160.184754 0 1 ack 40 ------- 2 0.0.0.0 1.0.1.0 5 180
+ 160.184754 1 4 ack 40 ------- 2 0.0.0.0 1.0.1.0 5 180
- 160.184754 1 4 ack 40 ------- 2 0.0.0.0 1.0.1.0 5 180
r 160.187818 1 4 ack 40 ------- 2 0.0.0.0 1.0.1.0 5 180
+ 160.197271 3 1 tcp 1020 ------- 2 1.0.1.0 0.0.0.0 6 179
- 160.197271 3 1 tcp 1020 ------- 2 1.0.1.0 0.0.0.0 6 179
r 160.200815 3 1 tcp 1020 ------- 2 1.0.1.0 0.0.0.0 6 179
+ 160.200815 1 0 tcp 1020 ------- 2 1.0.1.0 0.0.0.0 6 179
- 160.200815 1 0 tcp 1020 ------- 2 1.0.1.0 0.0.0.0 6 179
r 160.203278449 _5_ AGT  --- 177 ack 40 [13a 3 7 800] ------- [0:0 4194305:0 27 4194305] [4 0] 3 0
s 160.203278449 _5_ AGT  --- 181 tcp 1000 [0 0 0 0] ------- [4194305:0 0:0 32 0] [7 0] 0 0
r 160.204447 1 0 tcp 1020 ------- 2 1.0.1.0 0.0.0.0 6 179
+ 160.204447 0 1 ack 40 ------- 2 0.0.0.0 1.0.1.0 6 182
- 160.204447 0 1 ack 40 ------- 2 0.0.0.0 1.0.1.0 6 182
r 160.206511 0 1 ack 40 ------- 2 0.0.0.0 1.0.1.0 6 182
+ 160.206511 1 4 ack 40 ------- 2 0.0.0.0 1.0.1.0 6 182
- 160.206511 1 4 ack 40 ------- 2 0.0.0.0 1.0.1.0 6 182
r 160.209575 1 4 ack 40 ------- 2 0.0.0.0 1.0.1.0 6 182
+ 160.22309 3 1 tcp 1020 ------- 2 1.0.1.0 0.0.0.0 7 181
- 160.22309 3 1 tcp 1020 ------- 2 1.0.1.0 0.0.0.0 7 181
r 160.226634 3 1 tcp 1020 ------- 2 1.0.1.0 0.0.0.0 7 181
+ 160.226634 1 0 tcp 1020 ------- 2 1.0.1.0 0.0.0.0 7 181
- 160.226634 1 0 tcp 1020 ------- 2 1.0.1.0 0.0.0.0 7 181
r 160.229217188 _5_ AGT  --- 180 ack 40 [13a 3 7 800] ------- [0:0 4194305:0 27 4194305] [5 0] 3 0
r 160.230266 1 0 tcp 1020 ------- 2 1.0.1.0 0.0.0.0 7 181
+ 160.230266 0 1 ack 40 ------- 2 0.0.0.0 1.0.1.0 7 183
- 160.230266 0 1 ack 40 ------- 2 0.0.0.0 1.0.1.0 7 183
r 160.23233 0 1 ack 40 ------- 2 0.0.0.0 1.0.1.0 7 183
+ 160.23233 1 4 ack 40 ------- 2 0.0.0.0 1.0.1.0 7 183
- 160.23233 1 4 ack 40 ------- 2 0.0.0.0 1.0.1.0 7 183
r 160.235394 1 4 ack 40 ------- 2 0.0.0.0 1.0.1.0 7 183
r 160.236279643 _5_ AGT  --- 182 ack 40 [13a 3 7 800] ------- [0:0 4194305:0 27 4194305] [6 0] 3 0
s 160.236279643 _5_ AGT  --- 184 tcp 1000 [0 0 0 0] ------- [4194305:0 0:0 32 0] [8 0] 0 0
+ 160.256071 3 1 tcp 1020 ------- 2 1.0.1.0 0.0.0.0 8 184
- 160.256071 3 1 tcp 1020 ------- 2 1.0.1.0 0.0.0.0 8 184
r 160.259615 3 1 tcp 1020 ------- 2 1.0.1.0 0.0.0.0 8 184
+ 160.259615 1 0 tcp 1020 ------- 2 1.0.1.0 0.0.0.0 8 184
- 160.259615 1 0 tcp 1020 ------- 2 1.0.1.0 0.0.0.0 8 184
r 160.262618383 _5_ AGT  --- 183 ack 40 [13a 3 7 800] ------- [0:0 4194305:0 27 4194305] [7 0] 3 0
s 160.262618383 _5_ AGT  --- 185 tcp 1000 [0 0 0 0] ------- [4194305:0 0:0 32 0] [9 0] 0 0
r 160.263247 1 0 tcp 1020 ------- 2 1.0.1.0 0.0.0.0 8 184
+ 160.263247 0 1 ack 40 ------- 2 0.0.0.0 1.0.1.0 8 186
- 160.263247 0 1 ack 40 ------- 2 0.0.0.0 1.0.1.0 8 186
r 160.265311 0 1 ack 40 ------- 2 0.0.0.0 1.0.1.0 8 186
+ 160.265311 1 4 ack 40 ------- 2 0.0.0.0 1.0.1.0 8 186
- 160.265311 1 4 ack 40 ------- 2 0.0.0.0 1.0.1.0 8 186
r 160.268375 1 4 ack 40 ------- 2 0.0.0.0 1.0.1.0 8 186
+ 160.28255 3 1 tcp 1020 ------- 2 1.0.1.0 0.0.0.0 9 185
- 160.28255 3 1 tcp 1020 ------- 2 1.0.1.0 0.0.0.0 9 185
r 160.286094 3 1 tcp 1020 ------- 2 1.0.1.0 0.0.0.0 9 185
+ 160.286094 1 0 tcp 1020 ------- 2 1.0.1.0 0.0.0.0 9 185
- 160.286094 1 0 tcp 1020 ------- 2 1.0.1.0 0.0.0.0 9 185
r 160.289726 1 0 tcp 1020 ------- 2 1.0.1.0 0.0.0.0 9 185
+ 160.289726 0 1 ack 40 ------- 2 0.0.0.0 1.0.1.0 9 188
- 160.289726 0 1 ack 40 ------- 2 0.0.0.0 1.0.1.0 9 188
r 160.290850179 _5_ AGT  --- 186 ack 40 [13a 3 7 800] ------- [0:0 4194305:0 27 4194305] [8 0] 3 0
s 160.290850179 _5_ AGT  --- 189 tcp 1000 [0 0 0 0] ------- [4194305:0 0:0 32 0] [10 0] 0 0
r 160.29179 0 1 ack 40 ------- 2 0.0.0.0 1.0.1.0 9 188
+ 160.29179 1 4 ack 40 ------- 2 0.0.0.0 1.0.1.0 9 188
- 160.29179 1 4 ack 40 ------- 2 0.0.0.0 1.0.1.0 9 188
r 160.294854 1 4 ack 40 ------- 2 0.0.0.0 1.0.1.0 9 188
+ 160.310661 3 1 tcp 1020 ------- 2 1.0.1.0 0.0.0.0 10 189
- 160.310661 3 1 tcp 1020 ------- 2 1.0.1.0 0.0.0.0 10 189
r 160.314205 3 1 tcp 1020 ------- 2 1.0.1.0 0.0.0.0 10 189
+ 160.314205 1 0 tcp 1020 ------- 2 1.0.1.0 0.0.0.0 10 189
- 160.314205 1 0 tcp 1020 ------- 2 1.0.1.0 0.0.0.0 10 189
r 160.316708919 _5_ AGT  --- 188 ack 40 [13a 3 7 800] ------- [0:0 4194305:0 27 4194305] [9 0] 3 0
s 160.316708919 _5_ AGT  --- 190 tcp 1000 [0 0 0 0] ------- [4194305:0 0:0 32 0] [11 0] 0 0
r 160.317837 1 0 tcp 1020 ------- 2 1.0.1.0 0.0.0.0 10 189
+ 160.317837 0 1 ack 40 ------- 2 0.0.0.0 1.0.1.0 10 191
- 160.317837 0 1 ack 40 ------- 2 0.0.0.0 1.0.1.0 10 191
r 160.319901 0 1 ack 40 ------- 2 0.0.0.0 1.0.1.0 10 191
+ 160.319901 1 4 ack 40 ------- 2 0.0.0.0 1.0.1.0 10 191
- 160.319901 1 4 ack 40 ------- 2 0.0.0.0 1.0.1.0 10 191
r 160.322965 1 4 ack 40 ------- 2 0.0.0.0 1.0.1.0 10 191
+ 160.3364 3 1 tcp 1020 ------- 2 1.0.1.0 0.0.0.0 11 190
- 160.3364 3 1 tcp 1020 ------- 2 1.0.1.0 0.0.0.0 11 190
r 160.339944 3 1 tcp 1020 ------- 2 1.0.1.0 0.0.0.0 11 190
+ 160.339944 1 0 tcp 1020 ------- 2 1.0.1.0 0.0.0.0 11 190
- 160.339944 1 0 tcp 1020 ------- 2 1.0.1.0 0.0.0.0 11 190
r 160.342907658 _5_ AGT  --- 191 ack 40 [13a 3 7 800] ------- [0:0 4194305:0 27 4194305] [10 0] 3 0
s 160.342907658 _5_ AGT  --- 192 tcp 1000 [0 0 0 0] ------- [4194305:0 0:0 32 0] [12 0] 0 0
r 160.343576 1 0 tcp 1020 ------- 2 1.0.1.0 0.0.0.0 11 190
+ 160.343576 0 1 ack 40 ------- 2 0.0.0.0 1.0.1.0 11 193
- 160.343576 0 1 ack 40 ------- 2 0.0.0.0 1.0.1.0 11 193
r 160.34564 0 1 ack 40 ------- 2 0.0.0.0 1.0.1.0 11 193
+ 160.34564 1 4 ack 40 ------- 2 0.0.0.0 1.0.1.0 11 193
- 160.34564 1 4 ack 40 ------- 2 0.0.0.0 1.0.1.0 11 193
r 160.348704 1 4 ack 40 ------- 2 0.0.0.0 1.0.1.0 11 193
+ 160.362859 3 1 tcp 1020 ------- 2 1.0.1.0 0.0.0.0 12 192
- 160.362859 3 1 tcp 1020 ------- 2 1.0.1.0 0.0.0.0 12 192
r 160.366403 3 1 tcp 1020 ------- 2 1.0.1.0 0.0.0.0 12 192
+ 160.366403 1 0 tcp 1020 ------- 2 1.0.1.0 0.0.0.0 12 192
- 160.366403 1 0 tcp 1020 ------- 2 1.0.1.0 0.0.0.0 12 192
r 160.369426398 _5_ AGT  --- 193 ack 40 [13a 3 7 800] ------- [0:0 4194305:0 27 4194305] [11 0] 3 0
s 160.369426398 _5_ AGT  --- 194 tcp 1000 [0 0 0 0] ------- [4194305:0 0:0 32 0] [13 0] 0 0
r 160.370035 1 0 tcp 1020 ------- 2 1.0.1.0 0.0.0.0 12 192
+ 160.370035 0 1 ack 40 ------- 2 0.0.0.0 1.0.1.0 12 195
- 160.370035 0 1 ack 40 ------- 2 0.0.0.0 1.0.1.0 12 195
r 160.372099 0 1 ack 40 ------- 2 0.0.0.0 1.0.1.0 12 195
+ 160.372099 1 4 ack 40 ------- 2 0.0.0.0 1.0.1.0 12 195
- 160.372099 1 4 ack 40 ------- 2 0.0.0.0 1.0.1.0 12 195
r 160.375163 1 4 ack 40 ------- 2 0.0.0.0 1.0.1.0 12 195
+ 160.389358 3 1 tcp 1020 ------- 2 1.0.1.0 0.0.0.0 13 194
- 160.389358 3 1 tcp 1020 ------- 2 1.0.1.0 0.0.0.0 13 194
r 160.392902 3 1 tcp 1020 ------- 2 1.0.1.0 0.0.0.0 13 194
+ 160.392902 1 0 tcp 1020 ------- 2 1.0.1.0 0.0.0.0 13 194
- 160.392902 1 0 tcp 1020 ------- 2 1.0.1.0 0.0.0.0 13 194
r 160.395845137 _5_ AGT  --- 195 ack 40 [13a 3 7 800] ------- [0:0 4194305:0 27 4194305] [12 0] 3 0
s 160.395845137 _5_ AGT  --- 196 tcp 1000 [0 0 0 0] ------- [4194305:0 0:0 32 0] [14 0] 0 0
r 160.396534 1 0 tcp 1020 ------- 2 1.0.1.0 0.0.0.0 13 194
+ 160.396534 0 1 ack 40 ------- 2 0.0.0.0 1.0.1.0 13 197
- 160.396534 0 1 ack 40 ------- 2 0.0.0.0 1.0.1.0 13 197
r 160.398598 0 1 ack 40 ------- 2 0.0.0.0 1.0.1.0 13 197
+ 160.398598 1 4 ack 40 ------- 2 0.0.0.0 1.0.1.0 13 197
- 160.398598 1 4 ack 40 ------- 2 0.0.0.0 1.0.1.0 13 197
r 160.401662 1 4 ack 40 ------- 2 0.0.0.0 1.0.1.0 13 197
+ 160.415516 3 1 tcp 1020 ------- 2 1.0.1.0 0.0.0.0 14 196
- 160.415516 3 1 tcp 1020 ------- 2 1.0.1.0 0.0.0.0 14 196
r 160.41906 3 1 tcp 1020 ------- 2 1.0.1.0 0.0.0.0 14 196
+ 160.41906 1 0 tcp 1020 ------- 2 1.0.1.0 0.0.0.0 14 196
- 160.41906 1 0 tcp 1020 ------- 2 1.0.1.0 0.0.0.0 14 196
r 160.422083877 _5_ AGT  --- 197 ack 40 [13a 3 7 800] ------- [0:0 4194305:0 27 4194305] [13 0] 3 0
s 160.422083877 _5_ AGT  --- 198 tcp 1000 [0 0 0 0] ------- [4194305:0 0:0 32 0] [15 0] 0 0
r 160.422692 1 0 tcp 1020 ------- 2 1.0.1.0 0.0.0.0 14 196
+ 160.422692 0 1 ack 40 ------- 2 0.0.0.0 1.0.1.0 14 199
- 160.422692 0 1 ack 40 ------- 2 0.0.0.0 1.0.1.0 14 199
r 160.424756 0 1 ack 40 ------- 2 0.0.0.0 1.0.1.0 14 199
+ 160.424756 1 4 ack 40 ------- 2 0.0.0.0 1.0.1.0 14 199
- 160.424756 1 4 ack 40 ------- 2 0.0.0.0 1.0.1.0 14 199
r 160.42782 1 4 ack 40 ------- 2 0.0.0.0 1.0.1.0 14 199
+ 160.441935 3 1 tcp 1020 ------- 2 1.0.1.0 0.0.0.0 15 198
- 160.441935 3 1 tcp 1020 ------- 2 1.0.1.0 0.0.0.0 15 198
r 160.445479 3 1 tcp 1020 ------- 2 1.0.1.0 0.0.0.0 15 198
+ 160.445479 1 0 tcp 1020 ------- 2 1.0.1.0 0.0.0.0 15 198
- 160.445479 1 0 tcp 1020 ------- 2 1.0.1.0 0.0.0.0 15 198
r 160.448442616 _5_ AGT  --- 199 ack 40 [13a 3 7 800] ------- [0:0 4194305:0 27 4194305] [14 0] 3 0
s 160.448442616 _5_ AGT  --- 200 tcp 1000 [0 0 0 0] ------- [4194305:0 0:0 32 0] [16 0] 0 0
r 160.449111 1 0 tcp 1020 ------- 2 1.0.1.0 0.0.0.0 15 198
+ 160.449111 0 1 ack 40 ------- 2 0.0.0.0 1.0.1.0 15 201
- 160.449111 0 1 ack 40 ------- 2 0.0.0.0 1.0.1.0 15 201
r 160.451175 0 1 ack 40 ------- 2 0.0.0.0 1.0.1.0 15 201
+ 160.451175 1 4 ack 40 ------- 2 0.0.0.0 1.0.1.0 15 201
- 160.451175 1 4 ack 40 ------- 2 0.0.0.0 1.0.1.0 15 201
r 160.454239 1 4 ack 40 ------- 2 0.0.0.0 1.0.1.0 15 201
+ 160.468774 3 1 tcp 1020 ------- 2 1.0.1.0 0.0.0.0 16 200
- 160.468774 3 1 tcp 1020 ------- 2 1.0.1.0 0.0.0.0 16 200
r 160.472318 3 1 tcp 1020 ------- 2 1.0.1.0 0.0.0.0 16 200
+ 160.472318 1 0 tcp 1020 ------- 2 1.0.1.0 0.0.0.0 16 200
- 160.472318 1 0 tcp 1020 ------- 2 1.0.1.0 0.0.0.0 16 200
r 160.474801355 _5_ AGT  --- 201 ack 40 [13a 3 7 800] ------- [0:0 4194305:0 27 4194305] [15 0] 3 0
s 160.474801355 _5_ AGT  --- 202 tcp 1000 [0 0 0 0] ------- [4194305:0 0:0 32 0] [17 0] 0 0
r 160.47595 1 0 tcp 1020 ------- 2 1.0.1.0 0.0.0.0 16 200
+ 160.47595 0 1 ack 40 ------- 2 0.0.0.0 1.0.1.0 16 203
- 160.47595 0 1 ack 40 ------- 2 0.0.0.0 1.0.1.0 16 203
r 160.478014 0 1 ack 40 ------- 2 0.0.0.0 1.0.1.0 16 203
+ 160.478014 1 4 ack 40 ------- 2 0.0.0.0 1.0.1.0 16 203
- 160.478014 1 4 ack 40 ------- 2 0.0.0.0 1.0.1.0 16 203
r 160.481078 1 4 ack 40 ------- 2 0.0.0.0 1.0.1.0 16 203
+ 160.494693 3 1 tcp 1020 ------- 2 1.0.1.0 0.0.0.0 17 202
- 160.494693 3 1 tcp 1020 ------- 2 1.0.1.0 0.0.0.0 17 202
r 160.498237 3 1 tcp 1020 ------- 2 1.0.1.0 0.0.0.0 17 202
+ 160.498237 1 0 tcp 1020 ------- 2 1.0.1.0 0.0.0.0 17 202
- 160.498237 1 0 tcp 1020 ------- 2 1.0.1.0 0.0.0.0 17 202
r 160.501120095 _5_ AGT  --- 203 ack 40 [13a 3 7 800] ------- [0:0 4194305:0 27 4194305] [16 0] 3 0
s 160.501120095 _5_ AGT  --- 204 tcp 1000 [0 0 0 0] ------- [4194305:0 0:0 32 0] [18 0] 0 0
r 160.501869 1 0 tcp 1020 ------- 2 1.0.1.0 0.0.0.0 17 202
+ 160.501869 0 1 ack 40 ------- 2 0.0.0.0 1.0.1.0 17 205
- 160.501869 0 1 ack 40 ------- 2 0.0.0.0 1.0.1.0 17 205
r 160.503933 0 1 ack 40 ------- 2 0.0.0.0 1.0.1.0 17 205
+ 160.503933 1 4 ack 40 ------- 2 0.0.0.0 1.0.1.0 17 205
- 160.503933 1 4 ack 40 ------- 2 0.0.0.0 1.0.1.0 17 205
r 160.506997 1 4 ack 40 ------- 2 0.0.0.0 1.0.1.0 17 205
+ 160.521091 3 1 tcp 1020 ------- 2 1.0.1.0 0.0.0.0 18 204
- 160.521091 3 1 tcp 1020 ------- 2 1.0.1.0 0.0.0.0 18 204
r 160.524635 3 1 tcp 1020 ------- 2 1.0.1.0 0.0.0.0 18 204
+ 160.524635 1 0 tcp 1020 ------- 2 1.0.1.0 0.0.0.0 18 204
- 160.524635 1 0 tcp 1020 ------- 2 1.0.1.0 0.0.0.0 18 204
r 160.527158834 _5_ AGT  --- 205 ack 40 [13a 3 7 800] ------- [0:0 4194305:0 27 4194305] [17 0] 3 0
s 160.527158834 _5_ AGT  --- 206 tcp 1000 [0 0 0 0] ------- [4194305:0 0:0 32 0] [19 0] 0 0
r 160.528267 1 0 tcp 1020 ------- 2 1.0.1.0 0.0.0.0 18 204
+ 160.528267 0 1 ack 40 ------- 2 0.0.0.0 1.0.1.0 18 207
- 160.528267 0 1 ack 40 ------- 2 0.0.0.0 1.0.1.0 18 207
r 160.530331 0 1 ack 40 ------- 2 0.0.0.0 1.0.1.0 18 207
+ 160.530331 1 4 ack 40 ------- 2 0.0.0.0 1.0.1.0 18 207
- 160.530331 1 4 ack 40 ------- 2 0.0.0.0 1.0.1.0 18 207
r 160.533395 1 4 ack 40 ------- 2 0.0.0.0 1.0.1.0 18 207
+ 160.54717 3 1 tcp 1020 ------- 2 1.0.1.0 0.0.0.0 19 206
- 160.54717 3 1 tcp 1020 ------- 2 1.0.1.0 0.0.0.0 19 206
r 160.550714 3 1 tcp 1020 ------- 2 1.0.1.0 0.0.0.0 19 206
+ 160.550714 1 0 tcp 1020 ------- 2 1.0.1.0 0.0.0.0 19 206
- 160.550714 1 0 tcp 1020 ------- 2 1.0.1.0 0.0.0.0 19 206
r 160.553217574 _5_ AGT  --- 207 ack 40 [13a 3 7 800] ------- [0:0 4194305:0 27 4194305] [18 0] 3 0
s 160.553217574 _5_ AGT  --- 208 tcp 1000 [0 0 0 0] ------- [4194305:0 0:0 32 0] [20 0] 0 0
r 160.554346 1 0 tcp 1020 ------- 2 1.0.1.0 0.0.0.0 19 206
+ 160.554346 0 1 ack 40 ------- 2 0.0.0.0 1.0.1.0 19 209
- 160.554346 0 1 ack 40 ------- 2 0.0.0.0 1.0.1.0 19 209
r 160.55641 0 1 ack 40 ------- 2 0.0.0.0 1.0.1.0 19 209
+ 160.55641 1 4 ack 40 ------- 2 0.0.0.0 1.0.1.0 19 209
- 160.55641 1 4 ack 40 ------- 2 0.0.0.0 1.0.1.0 19 209
r 160.559474 1 4 ack 40 ------- 2 0.0.0.0 1.0.1.0 19 209
+ 160.572869 3 1 tcp 1020 ------- 2 1.0.1.0 0.0.0.0 20 208
- 160.572869 3 1 tcp 1020 ------- 2 1.0.1.0 0.0.0.0 20 208
r 160.576413 3 1 tcp 1020 ------- 2 1.0.1.0 0.0.0.0 20 208
+ 160.576413 1 0 tcp 1020 ------- 2 1.0.1.0 0.0.0.0 20 208
- 160.576413 1 0 tcp 1020 ------- 2 1.0.1.0 0.0.0.0 20 208
r 160.578876313 _5_ AGT  --- 209 ack 40 [13a 3 7 800] ------- [0:0 4194305:0 27 4194305] [19 0] 3 0
s 160.578876313 _5_ AGT  --- 210 tcp 1000 [0 0 0 0] ------- [4194305:0 0:0 32 0] [21 0] 0 0
r 160.580045 1 0 tcp 1020 ------- 2 1.0.1.0 0.0.0.0 20 208
+ 160.580045 0 1 ack 40 ------- 2 0.0.0.0 1.0.1.0 20 211
- 160.580045 0 1 ack 40 ------- 2 0.0.0.0 1.0.1.0 20 211
r 160.582109 0 1 ack 40 ------- 2 0.0.0.0 1.0.1.0 20 211
+ 160.582109 1 4 ack 40 ------- 2 0.0.0.0 1.0.1.0 20 211
- 160.582109 1 4 ack 40 ------- 2 0.0.0.0 1.0.1.0 20 211
r 160.585173 1 4 ack 40 ------- 2 0.0.0.0 1.0.1.0 20 211
+ 160.599248 3 1 tcp 1020 ------- 2 1.0.1.0 0.0.0.0 21 210
- 160.599248 3 1 tcp 1020 ------- 2 1.0.1.0 0.0.0.0 21 210
r 160.602792 3 1 tcp 1020 ------- 2 1.0.1.0 0.0.0.0 21 210
+ 160.602792 1 0 tcp 1020 ------- 2 1.0.1.0 0.0.0.0 21 210
- 160.602792 1 0 tcp 1020 ------- 2 1.0.1.0 0.0.0.0 21 210
r 160.605215053 _5_ AGT  --- 211 ack 40 [13a 3 7 800] ------- [0:0 4194305:0 27 4194305] [20 0] 3 0
s 160.605215053 _5_ AGT  --- 212 tcp 1000 [0 0 0 0] ------- [4194305:0 0:0 32 0] [22 0] 0 0
r 160.606424 1 0 tcp 1020 ------- 2 1.0.1.0 0.0.0.0 21 210
+ 160.606424 0 1 ack 40 ------- 2 0.0.0.0 1.0.1.0 21 213
- 160.606424 0 1 ack 40 ------- 2 0.0.0.0 1.0.1.0 21 213
r 160.608488 0 1 ack 40 ------- 2 0.0.0.0 1.0.1.0 21 213
+ 160.608488 1 4 ack 40 ------- 2 0.0.0.0 1.0.1.0 21 213
- 160.608488 1 4 ack 40 ------- 2 0.0.0.0 1.0.1.0 21 213
r 160.611552 1 4 ack 40 ------- 2 0.0.0.0 1.0.1.0 21 213
+ 160.625166 3 1 tcp 1020 ------- 2 1.0.1.0 0.0.0.0 22 212
- 160.625166 3 1 tcp 1020 ------- 2 1.0.1.0 0.0.0.0 22 212
r 160.62871 3 1 tcp 1020 ------- 2 1.0.1.0 0.0.0.0 22 212
+ 160.62871 1 0 tcp 1020 ------- 2 1.0.1.0 0.0.0.0 22 212
- 160.62871 1 0 tcp 1020 ------- 2 1.0.1.0 0.0.0.0 22 212
r 160.631293792 _5_ AGT  --- 213 ack 40 [13a 3 7 800] ------- [0:0 4194305:0 27 4194305] [21 0] 3 0
s 160.631293792 _5_ AGT  --- 214 tcp 1000 [0 0 0 0] ------- [4194305:0 0:0 32 0] [23 0] 0 0
r 160.632342 1 0 tcp 1020 ------- 2 1.0.1.0 0.0.0.0 22 212
+ 160.632342 0 1 ack 40 ------- 2 0.0.0.0 1.0.1.0 22 215
- 160.632342 0 1 ack 40 ------- 2 0.0.0.0 1.0.1.0 22 215
r 160.634406 0 1 ack 40 ------- 2 0.0.0.0 1.0.1.0 22 215
+ 160.634406 1 4 ack 40 ------- 2 0.0.0.0 1.0.1.0 22 215
- 160.634406 1 4 ack 40 ------- 2 0.0.0.0 1.0.1.0 22 215
r 160.63747 1 4 ack 40 ------- 2 0.0.0.0 1.0.1.0 22 215
+ 160.651125 3 1 tcp 1020 ------- 2 1.0.1.0 0.0.0.0 23 214
- 160.651125 3 1 tcp 1020 ------- 2 1.0.1.0 0.0.0.0 23 214
r 160.654669 3 1 tcp 1020 ------- 2 1.0.1.0 0.0.0.0 23 214
+ 160.654669 1 0 tcp 1020 ------- 2 1.0.1.0 0.0.0.0 23 214
- 160.654669 1 0 tcp 1020 ------- 2 1.0.1.0 0.0.0.0 23 214
r 160.657932531 _5_ AGT  --- 215 ack 40 [13a 3 7 800] ------- [0:0 4194305:0 27 4194305] [22 0] 3 0
s 160.657932531 _5_ AGT  --- 216 tcp 1000 [0 0 0 0] ------- [4194305:0 0:0 32 0] [24 0] 0 0
r 160.658301 1 0 tcp 1020 ------- 2 1.0.1.0 0.0.0.0 23 214
+ 160.658301 0 1 ack 40 ------- 2 0.0.0.0 1.0.1.0 23 217
- 160.658301 0 1 ack 40 ------- 2 0.0.0.0 1.0.1.0 23 217
r 160.660365 0 1 ack 40 ------- 2 0.0.0.0 1.0.1.0 23 217
+ 160.660365 1 4 ack 40 ------- 2 0.0.0.0 1.0.1.0 23 217
- 160.660365 1 4 ack 40 ------- 2 0.0.0.0 1.0.1.0 23 217
r 160.663429 1 4 ack 40 ------- 2 0.0.0.0 1.0.1.0 23 217
+ 160.678244 3 1 tcp 1020 ------- 2 1.0.1.0 0.0.0.0 24 216
- 160.678244 3 1 tcp 1020 ------- 2 1.0.1.0 0.0.0.0 24 216
r 160.681788 3 1 tcp 1020 ------- 2 1.0.1.0 0.0.0.0 24 216
+ 160.681788 1 0 tcp 1020 ------- 2 1.0.1.0 0.0.0.0 24 216
- 160.681788 1 0 tcp 1020 ------- 2 1.0.1.0 0.0.0.0 24 216
r 160.684971271 _5_ AGT  --- 217 ack 40 [13a 3 7 800] ------- [0:0 4194305:0 27 4194305] [23 0] 3 0
s 160.684971271 _5_ AGT  --- 218 tcp 1000 [0 0 0 0] ------- [4194305:0 0:0 32 0] [25 0] 0 0
r 160.68542 1 0 tcp 1020 ------- 2 1.0.1.0 0.0.0.0 24 216
+ 160.68542 0 1 ack 40 ------- 2 0.0.0.0 1.0.1.0 24 219
- 160.68542 0 1 ack 40 ------- 2 0.0.0.0 1.0.1.0 24 219
r 160.687484 0 1 ack 40 ------- 2 0.0.0.0 1.0.1.0 24 219
+ 160.687484 1 4 ack 40 ------- 2 0.0.0.0 1.0.1.0 24 219
- 160.687484 1 4 ack 40 ------- 2 0.0.0.0 1.0.1.0 24 219
r 160.690548 1 4 ack 40 ------- 2 0.0.0.0 1.0.1.0 24 219
+ 160.704783 3 1 tcp 1020 ------- 2 1.0.1.0 0.0.0.0 25 218
- 160.704783 3 1 tcp 1020 ------- 2 1.0.1.0 0.0.0.0 25 218
r 160.708327 3 1 tcp 1020 ------- 2 1.0.1.0 0.0.0.0 25 218
+ 160.708327 1 0 tcp 1020 ------- 2 1.0.1.0 0.0.0.0 25 218
- 160.708327 1 0 tcp 1020 ------- 2 1.0.1.0 0.0.0.0 25 218
r 160.711130010 _5_ AGT  --- 219 ack 40 [13a 3 7 800] ------- [0:0 4194305:0 27 4194305] [24 0] 3 0
s 160.711130010 _5_ AGT  --- 220 tcp 1000 [0 0 0 0] ------- [4194305:0 0:0 32 0] [26 0] 0 0
r 160.711959 1 0 tcp 1020 ------- 2 1.0.1.0 0.0.0.0 25 218
+ 160.711959 0 1 ack 40 ------- 2 0.0.0.0 1.0.1.0 25 221
- 160.711959 0 1 ack 40 ------- 2 0.0.0.0 1.0.1.0 25 221
r 160.714023 0 1 ack 40 ------- 2 0.0.0.0 1.0.1.0 25 221
+ 160.714023 1 4 ack 40 ------- 2 0.0.0.0 1.0.1.0 25 221
- 160.714023 1 4 ack 40 ------- 2 0.0.0.0 1.0.1.0 25 221
r 160.717087 1 4 ack 40 ------- 2 0.0.0.0 1.0.1.0 25 221
+ 160.731281 3 1 tcp 1020 ------- 2 1.0.1.0 0.0.0.0 26 220
- 160.731281 3 1 tcp 1020 ------- 2 1.0.1.0 0.0.0.0 26 220
r 160.734825 3 1 tcp 1020 ------- 2 1.0.1.0 0.0.0.0 26 220
+ 160.734825 1 0 tcp 1020 ------- 2 1.0.1.0 0.0.0.0 26 220
- 160.734825 1 0 tcp 1020 ------- 2 1.0.1.0 0.0.0.0 26 220
r 160.737108750 _5_ AGT  --- 221 ack 40 [13a 3 7 800] ------- [0:0 4194305:0 27 4194305] [25 0] 3 0
s 160.737108750 _5_ AGT  --- 222 tcp 1000 [0 0 0 0] ------- [4194305:0 0:0 32 0] [27 0] 0 0
r 160.738457 1 0 tcp 1020 ------- 2 1.0.1.0 0.0.0.0 26 220
+ 160.738457 0 1 ack 40 ------- 2 0.0.0.0 1.0.1.0 26 223
- 160.738457 0 1 ack 40 ------- 2 0.0.0.0 1.0.1.0 26 223
r 160.740521 0 1 ack 40 ------- 2 0.0.0.0 1.0.1.0 26 223
+ 160.740521 1 4 ack 40 ------- 2 0.0.0.0 1.0.1.0 26 223
- 160.740521 1 4 ack 40 ------- 2 0.0.0.0 1.0.1.0 26 223
r 160.743585 1 4 ack 40 ------- 2 0.0.0.0 1.0.1.0 26 223
+ 160.75696 3 1 tcp 1020 ------- 2 1.0.1.0 0.0.0.0 27 222
- 160.75696 3 1 tcp 1020 ------- 2 1.0.1.0 0.0.0.0 27 222
r 160.760504 3 1 tcp 1020 ------- 2 1.0.1.0 0.0.0.0 27 222
+ 160.760504 1 0 tcp 1020 ------- 2 1.0.1.0 0.0.0.0 27 222
- 160.760504 1 0 tcp 1020 ------- 2 1.0.1.0 0.0.0.0 27 222
r 160.763447489 _5_ AGT  --- 223 ack 40 [13a 3 7 800] ------- [0:0 4194305:0 27 4194305] [26 0] 3 0
s 160.763447489 _5_ AGT  --- 224 tcp 1000 [0 0 0 0] ------- [4194305:0 0:0 32 0] [28 0] 0 0
r 160.764136 1 0 tcp 1020 ------- 2 1.0.1.0 0.0.0.0 27 222
+ 160.764136 0 1 ack 40 ------- 2 0.0.0.0 1.0.1.0 27 225
- 160.764136 0 1 ack 40 ------- 2 0.0.0.0 1.0.1.0 27 225
r 160.7662 0 1 ack 40 ------- 2 0.0.0.0 1.0.1.0 27 225
+ 160.7662 1 4 ack 40 ------- 2 0.0.0.0 1.0.1.0 27 225
- 160.7662 1 4 ack 40 ------- 2 0.0.0.0 1.0.1.0 27 225
r 160.769264 1 4 ack 40 ------- 2 0.0.0.0 1.0.1.0 27 225
+ 160.783179 3 1 tcp 1020 ------- 2 1.0.1.0 0.0.0.0 28 224
- 160.783179 3 1 tcp 1020 ------- 2 1.0.1.0 0.0.0.0 28 224
r 160.786723 3 1 tcp 1020 ------- 2 1.0.1.0 0.0.0.0 28 224
+ 160.786723 1 0 tcp 1020 ------- 2 1.0.1.0 0.0.0.0 28 224
- 160.786723 1 0 tcp 1020 ------- 2 1.0.1.0 0.0.0.0 28 224
r 160.789166229 _5_ AGT  --- 225 ack 40 [13a 3 7 800] ------- [0:0 4194305:0 27 4194305] [27 0] 3 0
s 160.789166229 _5_ AGT  --- 226 tcp 1000 [0 0 0 0] ------- [4194305:0 0:0 32 0] [29 0] 0 0
r 160.790355 1 0 tcp 1020 ------- 2 1.0.1.0 0.0.0.0 28 224
+ 160.790355 0 1 ack 40 ------- 2 0.0.0.0 1.0.1.0 28 227
- 160.790355 0 1 ack 40 ------- 2 0.0.0.0 1.0.1.0 28 227
r 160.792419 0 1 ack 40 ------- 2 0.0.0.0 1.0.1.0 28 227
+ 160.792419 1 4 ack 40 ------- 2 0.0.0.0 1.0.1.0 28 227
- 160.792419 1 4 ack 40 ------- 2 0.0.0.0 1.0.1.0 28 227
r 160.795483 1 4 ack 40 ------- 2 0.0.0.0 1.0.1.0 28 227
+ 160.809178 3 1 tcp 1020 ------- 2 1.0.1.0 0.0.0.0 29 226
- 160.809178 3 1 tcp 1020 ------- 2 1.0.1.0 0.0.0.0 29 226
r 160.812722 3 1 tcp 1020 ------- 2 1.0.1.0 0.0.0.0 29 226
+ 160.812722 1 0 tcp 1020 ------- 2 1.0.1.0 0.0.0.0 29 226
- 160.812722 1 0 tcp 1020 ------- 2 1.0.1.0 0.0.0.0 29 226
r 160.815044968 _5_ AGT  --- 227 ack 40 [13a 3 7 800] ------- [0:0 4194305:0 27 4194305] [28 0] 3 0
s 160.815044968 _5_ AGT  --- 228 tcp 1000 [0 0 0 0] ------- [4194305:0 0:0 32 0] [30 0] 0 0
r 160.816354 1 0 tcp 1020 ------- 2 1.0.1.0 0.0.0.0 29 226
+ 160.816354 0 1 ack 40 ------- 2 0.0.0.0 1.0.1.0 29 229
- 160.816354 0 1 ack 40 ------- 2 0.0.0.0 1.0.1.0 29 229
r 160.818418 0 1 ack 40 ------- 2 0.0.0.0 1.0.1.0 29 229
+ 160.818418 1 4 ack 40 ------- 2 0.0.0.0 1.0.1.0 29 229
- 160.818418 1 4 ack 40 ------- 2 0.0.0.0 1.0.1.0 29 229
r 160.821482 1 4 ack 40 ------- 2 0.0.0.0 1.0.1.0 29 229
+ 160.834896 3 1 tcp 1020 ------- 2 1.0.1.0 0.0.0.0 30 228
- 160.834896 3 1 tcp 1020 ------- 2 1.0.1.0 0.0.0.0 30 228
r 160.83844 3 1 tcp 1020 ------- 2 1.0.1.0 0.0.0.0 30 228
+ 160.83844 1 0 tcp 1020 ------- 2 1.0.1.0 0.0.0.0 30 228
- 160.83844 1 0 tcp 1020 ------- 2 1.0.1.0 0.0.0.0 30 228
r 160.841263707 _5_ AGT  --- 229 ack 40 [13a 3 7 800] ------- [0:0 4194305:0 27 4194305] [29 0] 3 0
s 160.841263707 _5_ AGT  --- 230 tcp 1000 [0 0 0 0] ------- [4194305:0 0:0 32 0] [31 0] 0 0
r 160.842072 1 0 tcp 1020 ------- 2 1.0.1.0 0.0.0.0 30 228
+ 160.842072 0 1 ack 40 ------- 2 0.0.0.0 1.0.1.0 30 231
- 160.842072 0 1 ack 40 ------- 2 0.0.0.0 1.0.1.0 30 231
r 160.844136 0 1 ack 40 ------- 2 0.0.0.0 1.0.1.0 30 231
+ 160.844136 1 4 ack 40 ------- 2 0.0.0.0 1.0.1.0 30 231
- 160.844136 1 4 ack 40 ------- 2 0.0.0.0 1.0.1.0 30 231
r 160.8472 1 4 ack 40 ------- 2 0.0.0.0 1.0.1.0 30 231
+ 160.861235 3 1 tcp 1020 ------- 2 1.0.1.0 0.0.0.0 31 230
- 160.861235 3 1 tcp 1020 ------- 2 1.0.1.0 0.0.0.0 31 230
r 160.864779 3 1 tcp 1020 ------- 2 1.0.1.0 0.0.0.0 31 230
+ 160.864779 1 0 tcp 1020 ------- 2 1.0.1.0 0.0.0.0 31 230
- 160.864779 1 0 tcp 1020 ------- 2 1.0.1.0 0.0.0.0 31 230
r 160.867842447 _5_ AGT  --- 231 ack 40 [13a 3 7 800] ------- [0:0 4194305:0 27 4194305] [30 0] 3 0
s 160.867842447 _5_ AGT  --- 232 tcp 1000 [0 0 0 0] ------- [4194305:0 0:0 32 0] [32 0] 0 0
r 160.868411 1 0 tcp 1020 ------- 2 1.0.1.0 0.0.0.0 31 230
+ 160.868411 0 1 ack 40 ------- 2 0.0.0.0 1.0.1.0 31 233
- 160.868411 0 1 ack 40 ------- 2 0.0.0.0 1.0.1.0 31 233
r 160.870475 0 1 ack 40 ------- 2 0.0.0.0 1.0.1.0 31 233
+ 160.870475 1 4 ack 40 ------- 2 0.0.0.0 1.0.1.0 31 233
- 160.870475 1 4 ack 40 ------- 2 0.0.0.0 1.0.1.0 31 233
r 160.873539 1 4 ack 40 ------- 2 0.0.0.0 1.0.1.0 31 233
+ 160.887874 3 1 tcp 1020 ------- 2 1.0.1.0 0.0.0.0 32 232
- 160.887874 3 1 tcp 1020 ------- 2 1.0.1.0 0.0.0.0 32 232
r 160.891418 3 1 tcp 1020 ------- 2 1.0.1.0 0.0.0.0 32 232
+ 160.891418 1 0 tcp 1020 ------- 2 1.0.1.0 0.0.0.0 32 232
- 160.891418 1 0 tcp 1020 ------- 2 1.0.1.0 0.0.0.0 32 232
r 160.893921186 _5_ AGT  --- 233 ack 40 [13a 3 7 800] ------- [0:0 4194305:0 27 4194305] [31 0] 3 0
s 160.893921186 _5_ AGT  --- 234 tcp 1000 [0 0 0 0] ------- [4194305:0 0:0 32 0] [33 0] 0 0
r 160.89505 1 0 tcp 1020 ------- 2 1.0.1.0 0.0.0.0 32 232
+ 160.89505 0 1 ack 40 ------- 2 0.0.0.0 1.0.1.0 32 235
- 160.89505 0 1 ack 40 ------- 2 0.0.0.0 1.0.1.0 32 235
r 160.897114 0 1 ack 40 ------- 2 0.0.0.0 1.0.1.0 32 235
+ 160.897114 1 4 ack 40 ------- 2 0.0.0.0 1.0.1.0 32 235
- 160.897114 1 4 ack 40 ------- 2 0.0.0.0 1.0.1.0 32 235
r 160.900178 1 4 ack 40 ------- 2 0.0.0.0 1.0.1.0 32 235
+ 160.913612 3 1 tcp 1020 ------- 2 1.0.1.0 0.0.0.0 33 234
- 160.913612 3 1 tcp 1020 ------- 2 1.0.1.0 0.0.0.0 33 234
r 160.917156 3 1 tcp 1020 ------- 2 1.0.1.0 0.0.0.0 33 234
+ 160.917156 1 0 tcp 1020 ------- 2 1.0.1.0 0.0.0.0 33 234
- 160.917156 1 0 tcp 1020 ------- 2 1.0.1.0 0.0.0.0 33 234
r 160.919719926 _5_ AGT  --- 235 ack 40 [13a 3 7 800] ------- [0:0 4194305:0 27 4194305] [32 0] 3 0
s 160.919719926 _5_ AGT  --- 236 tcp 1000 [0 0 0 0] ------- [4194305:0 0:0 32 0] [34 0] 0 0