M 0.00000 4194305 (433.19, 86.81, 0.00), (533.98, 316.26), 10.42
M 0.00000 4196353 (182.15, 589.46, 0.00), (161.81, 443.17), 10.92
M 0.00000 4196354 (636.71, 227.79, 0.00), (639.91, 171.36), 15.32
M 0.00000 4196355 (355.73, 636.86, 0.00), (542.67, 413.38), 12.55
M 0.00000 4198401 (412.57, 140.39, 0.00), (498.26, 244.65), 14.90
M 0.00000 4198402 (192.50, 389.17, 0.00), (597.55, 123.93), 16.98
s 160.000000000 _5_ AGT  --- 164 tcp 40 [0 0 0 0] ------- [4194305:0 0:0 32 0] [0 0] 0 0
+ 160.010614 3 1 tcp 60 ------- 2 1.0.1.0 0.0.0.0 0 164
- 160.010614 3 1 tcp 60 ------- 2 1.0.1.0 0.0.0.0 0 164
r 160.013646 3 1 tcp 60 ------- 2 1.0.1.0 0.0.0.0 0 164
+ 160.013646 1 0 tcp 60 ------- 2 1.0.1.0 0.0.0.0 0 164
- 160.013646 1 0 tcp 60 ------- 2 1.0.1.0 0.0.0.0 0 164
r 160.015742 1 0 tcp 60 ------- 2 1.0.1.0 0.0.0.0 0 164
+ 160.015742 0 1 ack 40 ------- 2 0.0.0.0 1.0.1.0 0 165
- 160.015742 0 1 ack 40 ------- 2 0.0.0.0 1.0.1.0 0 165
r 160.017806 0 1 ack 40 ------- 2 0.0.0.0 1.0.1.0 0 165
+ 160.017806 1 4 ack 40 ------- 2 0.0.0.0 1.0.1.0 0 165
- 160.017806 1 4 ack 40 ------- 2 0.0.0.0 1.0.1.0 0 165
r 160.02087 1 4 ack 40 ------- 2 0.0.0.0 1.0.1.0 0 165
r 160.029975807 _5_ AGT  --- 165 ack 40 [13a 3 7 800] ------- [0:0 4194305:0 27 4194305] [0 0] 3 0
s 160.029975807 _5_ AGT  --- 166 tcp 1040 [0 0 0 0] ------- [4194305:0 0:0 32 0] [1 0] 0 0
s 160.029975807 _5_ AGT  --- 167 tcp 1040 [0 0 0 0] ------- [4194305:0 0:0 32 0] [2 0] 0 0
+ 160.060432 3 1 tcp 1060 ------- 2 1.0.1.0 0.0.0.0 1 166
- 160.060432 3 1 tcp 1060 ------- 2 1.0.1.0 0.0.0.0 1 166
r 160.063997 3 1 tcp 1060 ------- 2 1.0.1.0 0.0.0.0 1 166
+ 160.063997 1 0 tcp 1060 ------- 2 1.0.1.0 0.0.0.0 1 166
- 160.063997 1 0 tcp 1060 ------- 2 1.0.1.0 0.0.0.0 1 166
r 160.067693 1 0 tcp 1060 ------- 2 1.0.1.0 0.0.0.0 1 166
+ 160.067693 0 1 ack 40 ------- 2 0.0.0.0 1.0.1.0 1 168
- 160.067693 0 1 ack 40 ------- 2 0.0.0.0 1.0.1.0 1 168
r 160.069757 0 1 ack 40 ------- 2 0.0.0.0 1.0.1.0 1 168
+ 160.069757 1 4 ack 40 ------- 2 0.0.0.0 1.0.1.0 1 168
- 160.069757 1 4 ack 40 ------- 2 0.0.0.0 1.0.1.0 1 168
+ 160.070919 3 1 tcp 1060 ------- 2 1.0.1.0 0.0.0.0 2 167
- 160.070919 3 1 tcp 1060 ------- 2 1.0.1.0 0.0.0.0 2 167
r 160.072821 1 4 ack 40 ------- 2 0.0.0.0 1.0.1.0 1 168
r 160.074485 3 1 tcp 1060 ------- 2 1.0.1.0 0.0.0.0 2 167
+ 160.074485 1 0 tcp 1060 ------- 2 1.0.1.0 0.0.0.0 2 167
- 160.074485 1 0 tcp 1060 ------- 2 1.0.1.0 0.0.0.0 2 167
r 160.078181 1 0 tcp 1060 ------- 2 1.0.1.0 0.0.0.0 2 167
+ 160.078181 0 1 ack 40 ------- 2 0.0.0.0 1.0.1.0 2 169
- 160.078181 0 1 ack 40 ------- 2 0.0.0.0 1.0.1.0 2 169
r 160.079194430 _5_ AGT  --- 168 ack 40 [13a 3 7 800] ------- [0:0 4194305:0 27 4194305] [1 0] 3 0
s 160.079194430 _5_ AGT  --- 170 tcp 1040 [0 0 0 0] ------- [4194305:0 0:0 32 0] [3 0] 0 0
s 160.079194430 _5_ AGT  --- 171 tcp 1040 [0 0 0 0] ------- [4194305:0 0:0 32 0] [4 0] 0 0
r 160.080245 0 1 ack 40 ------- 2 0.0.0.0 1.0.1.0 2 169
+ 160.080245 1 4 ack 40 ------- 2 0.0.0.0 1.0.1.0 2 169
- 160.080245 1 4 ack 40 ------- 2 0.0.0.0 1.0.1.0 2 169
r 160.083309 1 4 ack 40 ------- 2 0.0.0.0 1.0.1.0 2 169
+ 160.110291 3 1 tcp 1060 ------- 2 1.0.1.0 0.0.0.0 3 170
- 160.110291 3 1 tcp 1060 ------- 2 1.0.1.0 0.0.0.0 3 170
r 160.113856 3 1 tcp 1060 ------- 2 1.0.1.0 0.0.0.0 3 170
+ 160.113856 1 0 tcp 1060 ------- 2 1.0.1.0 0.0.0.0 3 170
- 160.113856 1 0 tcp 1060 ------- 2 1.0.1.0 0.0.0.0 3 170
r 160.117552 1 0 tcp 1060 ------- 2 1.0.1.0 0.0.0.0 3 170
+ 160.117552 0 1 ack 40 ------- 2 0.0.0.0 1.0.1.0 3 172
- 160.117552 0 1 ack 40 ------- 2 0.0.0.0 1.0.1.0 3 172
r 160.119616 0 1 ack 40 ------- 2 0.0.0.0 1.0.1.0 3 172
+ 160.119616 1 4 ack 40 ------- 2 0.0.0.0 1.0.1.0 3 172
- 160.119616 1 4 ack 40 ------- 2 0.0.0.0 1.0.1.0 3 172
r 160.12268 1 4 ack 40 ------- 2 0.0.0.0 1.0.1.0 3 172
+ 160.12458 3 1 tcp 1060 ------- 2 1.0.1.0 0.0.0.0 4 171
- 160.12458 3 1 tcp 1060 ------- 2 1.0.1.0 0.0.0.0 4 171
r 160.128145 3 1 tcp 1060 ------- 2 1.0.1.0 0.0.0.0 4 171
+ 160.128145 1 0 tcp 1060 ------- 2 1.0.1.0 0.0.0.0 4 171
- 160.128145 1 0 tcp 1060 ------- 2 1.0.1.0 0.0.0.0 4 171
r 160.130707375 _5_ AGT  --- 169 ack 40 [13a 3 7 800] ------- [0:0 4194305:0 27 4194305] [2 0] 3 0
s 160.130707375 _5_ AGT  --- 173 tcp 1040 [0 0 0 0] ------- [4194305:0 0:0 32 0] [5 0] 0 0
s 160.130707375 _5_ AGT  --- 174 tcp 1040 [0 0 0 0] ------- [4194305:0 0:0 32 0] [6 0] 0 0
r 160.131841 1 0 tcp 1060 ------- 2 1.0.1.0 0.0.0.0 4 171
+ 160.131841 0 1 ack 40 ------- 2 0.0.0.0 1.0.1.0 4 175
- 160.131841 0 1 ack 40 ------- 2 0.0.0.0 1.0.1.0 4 175
r 160.133905 0 1 ack 40 ------- 2 0.0.0.0 1.0.1.0 4 175
+ 160.133905 1 4 ack 40 ------- 2 0.0.0.0 1.0.1.0 4 175
- 160.133905 1 4 ack 40 ------- 2 0.0.0.0 1.0.1.0 4 175
r 160.136969 1 4 ack 40 ------- 2 0.0.0.0 1.0.1.0 4 175
r 160.142976976 _5_ AGT  --- 172 ack 40 [13a 3 7 800] ------- [0:0 4194305:0 27 4194305] [3 0] 3 0
s 160.142976976 _5_ AGT  --- 176 tcp 1040 [0 0 0 0] ------- [4194305:0 0:0 32 0] [7 0] 0 0
s 160.142976976 _5_ AGT  --- 177 tcp 1040 [0 0 0 0] ------- [4194305:0 0:0 32 0] [8 0] 0 0
+ 160.163208 3 1 tcp 1060 ------- 2 1.0.1.0 0.0.0.0 5 173
- 160.163208 3 1 tcp 1060 ------- 2 1.0.1.0 0.0.0.0 5 173
r 160.166774 3 1 tcp 1060 ------- 2 1.0.1.0 0.0.0.0 5 173
+ 160.166774 1 0 tcp 1060 ------- 2 1.0.1.0 0.0.0.0 5 173
- 160.166774 1 0 tcp 1060 ------- 2 1.0.1.0 0.0.0.0 5 173
r 160.17047 1 0 tcp 1060 ------- 2 1.0.1.0 0.0.0.0 5 173
+ 160.17047 0 1 ack 40 ------- 2 0.0.0.0 1.0.1.0 5 178
- 160.17047 0 1 ack 40 ------- 2 0.0.0.0 1.0.1.0 5 178
r 160.172534 0 1 ack 40 ------- 2 0.0.0.0 1.0.1.0 5 178
+ 160.172534 1 4 ack 40 ------- 2 0.0.0.0 1.0.1.0 5 178
- 160.172534 1 4 ack 40 ------- 2 0.0.0.0 1.0.1.0 5 178
r 160.175598 1 4 ack 40 ------- 2 0.0.0.0 1.0.1.0 5 178
+ 160.177477 3 1 tcp 1060 ------- 2 1.0.1.0 0.0.0.0 6 174
- 160.177477 3 1 tcp 1060 ------- 2 1.0.1.0 0.0.0.0 6 174
r 160.179423026 _5_ AGT  --- 175 ack 40 [13a 3 7 800] ------- [0:0 4194305:0 27 4194305] [4 0] 3 0
s 160.179423026 _5_ AGT  --- 179 tcp 1040 [0 0 0 0] ------- [4194305:0 0:0 32 0] [9 0] 0 0
s 160.179423026 _5_ AGT  --- 180 tcp 1040 [0 0 0 0] ------- [4194305:0 0:0 32 0] [10 0] 0 0
r 160.181043 3 1 tcp 1060 ------- 2 1.0.1.0 0.0.0.0 6 174
+ 160.181043 1 0 tcp 1060 ------- 2 1.0.1.0 0.0.0.0 6 174
- 160.181043 1 0 tcp 1060 ------- 2 1.0.1.0 0.0.0.0 6 174
r 160.184739 1 0 tcp 1060 ------- 2 1.0.1.0 0.0.0.0 6 174
+ 160.184739 0 1 ack 40 ------- 2 0.0.0.0 1.0.1.0 6 181
- 160.184739 0 1 ack 40 ------- 2 0.0.0.0 1.0.1.0 6 181
r 160.186803 0 1 ack 40 ------- 2 0.0.0.0 1.0.1.0 6 181
+ 160.186803 1 4 ack 40 ------- 2 0.0.0.0 1.0.1.0 6 181
- 160.186803 1 4 ack 40 ------- 2 0.0.0.0 1.0.1.0 6 181
r 160.189867 1 4 ack 40 ------- 2 0.0.0.0 1.0.1.0 6 181
+ 160.200054 3 1 tcp 1060 ------- 2 1.0.1.0 0.0.0.0 7 176
- 160.200054 3 1 tcp 1060 ------- 2 1.0.1.0 0.0.0.0 7 176
r 160.20362 3 1 tcp 1060 ------- 2 1.0.1.0 0.0.0.0 7 176
+ 160.20362 1 0 tcp 1060 ------- 2 1.0.1.0 0.0.0.0 7 176
- 160.20362 1 0 tcp 1060 ------- 2 1.0.1.0 0.0.0.0 7 176
r 160.206201766 _5_ AGT  --- 178 ack 40 [13a 3 7 800] ------- [0:0 4194305:0 27 4194305] [5 0] 3 0
s 160.206201766 _5_ AGT  --- 182 tcp 1040 [0 0 0 0] ------- [4194305:0 0:0 32 0] [11 0] 0 0
s 160.206201766 _5_ AGT  --- 183 tcp 1040 [0 0 0 0] ------- [4194305:0 0:0 32 0] [12 0] 0 0
r 160.207316 1 0 tcp 1060 ------- 2 1.0.1.0 0.0.0.0 7 176
+ 160.207316 0 1 ack 40 ------- 2 0.0.0.0 1.0.1.0 7 184
- 160.207316 0 1 ack 40 ------- 2 0.0.0.0 1.0.1.0 7 184
r 160.20938 0 1 ack 40 ------- 2 0.0.0.0 1.0.1.0 7 184
+ 160.20938 1 4 ack 40 ------- 2 0.0.0.0 1.0.1.0 7 184
- 160.20938 1 4 ack 40 ------- 2 0.0.0.0 1.0.1.0 7 184
r 160.212444 1 4 ack 40 ------- 2 0.0.0.0 1.0.1.0 7 184
+ 160.226253 3 1 tcp 1060 ------- 2 1.0.1.0 0.0.0.0 8 177
- 160.226253 3 1 tcp 1060 ------- 2 1.0.1.0 0.0.0.0 8 177
r 160.229818 3 1 tcp 1060 ------- 2 1.0.1.0 0.0.0.0 8 177
+ 160.229818 1 0 tcp 1060 ------- 2 1.0.1.0 0.0.0.0 8 177
- 160.229818 1 0 tcp 1060 ------- 2 1.0.1.0 0.0.0.0 8 177
r 160.233514 1 0 tcp 1060 ------- 2 1.0.1.0 0.0.0.0 8 177
+ 160.233514 0 1 ack 40 ------- 2 0.0.0.0 1.0.1.0 8 185
- 160.233514 0 1 ack 40 ------- 2 0.0.0.0 1.0.1.0 8 185
r 160.235578 0 1 ack 40 ------- 2 0.0.0.0 1.0.1.0 8 185
+ 160.235578 1 4 ack 40 ------- 2 0.0.0.0 1.0.1.0 8 185
- 160.235578 1 4 ack 40 ------- 2 0.0.0.0 1.0.1.0 8 185
r 160.236254023 _5_ AGT  --- 181 ack 40 [13a 3 7 800] ------- [0:0 4194305:0 27 4194305] [6 0] 3 0
s 160.236254023 _5_ AGT  --- 186 tcp 1040 [0 0 0 0] ------- [4194305:0 0:0 32 0] [13 0] 0 0
s 160.236254023 _5_ AGT  --- 187 tcp 1040 [0 0 0 0] ------- [4194305:0 0:0 32 0] [14 0] 0 0
r 160.238642 1 4 ack 40 ------- 2 0.0.0.0 1.0.1.0 8 185
r 160.263628612 _5_ AGT  --- 184 ack 40 [13a 3 7 800] ------- [0:0 4194305:0 27 4194305] [7 0] 3 0
s 160.263628612 _5_ AGT  --- 188 tcp 1040 [0 0 0 0] ------- [4194305:0 0:0 32 0] [15 0] 0 0
s 160.263628612 _5_ AGT  --- 189 tcp 1040 [0 0 0 0] ------- [4194305:0 0:0 32 0] [16 0] 0 0
+ 160.273955 3 1 tcp 1060 ------- 2 1.0.1.0 0.0.0.0 9 179
- 160.273955 3 1 tcp 1060 ------- 2 1.0.1.0 0.0.0.0 9 179
r 160.277521 3 1 tcp 1060 ------- 2 1.0.1.0 0.0.0.0 9 179
+ 160.277521 1 0 tcp 1060 ------- 2 1.0.1.0 0.0.0.0 9 179
- 160.277521 1 0 tcp 1060 ------- 2 1.0.1.0 0.0.0.0 9 179
r 160.281217 1 0 tcp 1060 ------- 2 1.0.1.0 0.0.0.0 9 179
+ 160.281217 0 1 ack 40 ------- 2 0.0.0.0 1.0.1.0 9 190
- 160.281217 0 1 ack 40 ------- 2 0.0.0.0 1.0.1.0 9 190
r 160.283281 0 1 ack 40 ------- 2 0.0.0.0 1.0.1.0 9 190
+ 160.283281 1 4 ack 40 ------- 2 0.0.0.0 1.0.1.0 9 190
- 160.283281 1 4 ack 40 ------- 2 0.0.0.0 1.0.1.0 9 190
+ 160.284323 3 1 tcp 1060 ------- 2 1.0.1.0 0.0.0.0 10 180
- 160.284323 3 1 tcp 1060 ------- 2 1.0.1.0 0.0.0.0 10 180
r 160.286345 1 4 ack 40 ------- 2 0.0.0.0 1.0.1.0 9 190
r 160.286728301 _5_ AGT  --- 185 ack 40 [13a 3 7 800] ------- [0:0 4194305:0 27 4194305] [8 0] 3 0
s 160.286728301 _5_ AGT  --- 191 tcp 1040 [0 0 0 0] ------- [4194305:0 0:0 32 0] [17 0] 0 0
s 160.286728301 _5_ AGT  --- 192 tcp 1040 [0 0 0 0] ------- [4194305:0 0:0 32 0] [18 0] 0 0
r 160.287888 3 1 tcp 1060 ------- 2 1.0.1.0 0.0.0.0 10 180
+ 160.287888 1 0 tcp 1060 ------- 2 1.0.1.0 0.0.0.0 10 180
- 160.287888 1 0 tcp 1060 ------- 2 1.0.1.0 0.0.0.0 10 180
r 160.291584 1 0 tcp 1060 ------- 2 1.0.1.0 0.0.0.0 10 180
+ 160.291584 0 1 ack 40 ------- 2 0.0.0.0 1.0.1.0 10 193
- 160.291584 0 1 ack 40 ------- 2 0.0.0.0 1.0.1.0 10 193
r 160.293648 0 1 ack 40 ------- 2 0.0.0.0 1.0.1.0 10 193
+ 160.293648 1 4 ack 40 ------- 2 0.0.0.0 1.0.1.0 10 193
- 160.293648 1 4 ack 40 ------- 2 0.0.0.0 1.0.1.0 10 193
r 160.296712 1 4 ack 40 ------- 2 0.0.0.0 1.0.1.0 10 193
+ 160.316673 3 1 tcp 1060 ------- 2 1.0.1.0 0.0.0.0 11 182
- 160.316673 3 1 tcp 1060 ------- 2 1.0.1.0 0.0.0.0 11 182
r 160.318738652 _5_ AGT  --- 190 ack 40 [13a 3 7 800] ------- [0:0 4194305:0 27 4194305] [9 0] 3 0
s 160.318738652 _5_ AGT  --- 194 tcp 1040 [0 0 0 0] ------- [4194305:0 0:0 32 0] [19 0] 0 0
s 160.318738652 _5_ AGT  --- 195 tcp 1040 [0 0 0 0] ------- [4194305:0 0:0 32 0] [20 0] 0 0
r 160.320238 3 1 tcp 1060 ------- 2 1.0.1.0 0.0.0.0 11 182
+ 160.320238 1 0 tcp 1060 ------- 2 1.0.1.0 0.0.0.0 11 182
- 160.320238 1 0 tcp 1060 ------- 2 1.0.1.0 0.0.0.0 11 182
r 160.323934 1 0 tcp 1060 ------- 2 1.0.1.0 0.0.0.0 11 182
+ 160.323934 0 1 ack 40 ------- 2 0.0.0.0 1.0.1.0 11 196
- 160.323934 0 1 ack 40 ------- 2 0.0.0.0 1.0.1.0 11 196
r 160.325998 0 1 ack 40 ------- 2 0.0.0.0 1.0.1.0 11 196
+ 160.325998 1 4 ack 40 ------- 2 0.0.0.0 1.0.1.0 11 196
- 160.325998 1 4 ack 40 ------- 2 0.0.0.0 1.0.1.0 11 196
r 160.329062 1 4 ack 40 ------- 2 0.0.0.0 1.0.1.0 11 196
r 160.330988253 _5_ AGT  --- 193 ack 40 [13a 3 7 800] ------- [0:0 4194305:0 27 4194305] [10 0] 3 0
s 160.330988253 _5_ AGT  --- 197 tcp 1040 [0 0 0 0] ------- [4194305:0 0:0 32 0] [21 0] 0 0
s 160.330988253 _5_ AGT  --- 198 tcp 1040 [0 0 0 0] ------- [4194305:0 0:0 32 0] [22 0] 0 0
+ 160.35142 3 1 tcp 1060 ------- 2 1.0.1.0 0.0.0.0 12 183
- 160.35142 3 1 tcp 1060 ------- 2 1.0.1.0 0.0.0.0 12 183
r 160.354985 3 1 tcp 1060 ------- 2 1.0.1.0 0.0.0.0 12 183
+ 160.354985 1 0 tcp 1060 ------- 2 1.0.1.0 0.0.0.0 12 183
- 160.354985 1 0 tcp 1060 ------- 2 1.0.1.0 0.0.0.0 12 183
r 160.358681 1 0 tcp 1060 ------- 2 1.0.1.0 0.0.0.0 12 183
+ 160.358681 0 1 ack 40 ------- 2 0.0.0.0 1.0.1.0 12 199
- 160.358681 0 1 ack 40 ------- 2 0.0.0.0 1.0.1.0 12 199
r 160.360745 0 1 ack 40 ------- 2 0.0.0.0 1.0.1.0 12 199
+ 160.360745 1 4 ack 40 ------- 2 0.0.0.0 1.0.1.0 12 199
- 160.360745 1 4 ack 40 ------- 2 0.0.0.0 1.0.1.0 12 199
+ 160.363573 3 1 tcp 1060 ------- 2 1.0.1.0 0.0.0.0 13 186
- 160.363573 3 1 tcp 1060 ------- 2 1.0.1.0 0.0.0.0 13 186
r 160.363809 1 4 ack 40 ------- 2 0.0.0.0 1.0.1.0 12 199
r 160.367138 3 1 tcp 1060 ------- 2 1.0.1.0 0.0.0.0 13 186
+ 160.367138 1 0 tcp 1060 ------- 2 1.0.1.0 0.0.0.0 13 186
- 160.367138 1 0 tcp 1060 ------- 2 1.0.1.0 0.0.0.0 13 186
r 160.369560441 _5_ AGT  --- 196 ack 40 [13a 3 7 800] ------- [0:0 4194305:0 27 4194305] [11 0] 3 0
s 160.369560441 _5_ AGT  --- 200 tcp 1040 [0 0 0 0] ------- [4194305:0 0:0 32 0] [23 0] 0 0
s 160.369560441 _5_ AGT  --- 201 tcp 1040 [0 0 0 0] ------- [4194305:0 0:0 32 0] [24 0] 0 0
r 160.370834 1 0 tcp 1060 ------- 2 1.0.1.0 0.0.0.0 13 186
+ 160.370834 0 1 ack 40 ------- 2 0.0.0.0 1.0.1.0 13 202
- 160.370834 0 1 ack 40 ------- 2 0.0.0.0 1.0.1.0 13 202
r 160.372898 0 1 ack 40 ------- 2 0.0.0.0 1.0.1.0 13 202
+ 160.372898 1 4 ack 40 ------- 2 0.0.0.0 1.0.1.0 13 202
- 160.372898 1 4 ack 40 ------- 2 0.0.0.0 1.0.1.0 13 202
r 160.375962 1 4 ack 40 ------- 2 0.0.0.0 1.0.1.0 13 202
+ 160.391929 3 1 tcp 1060 ------- 2 1.0.1.0 0.0.0.0 14 187
- 160.391929 3 1 tcp 1060 ------- 2 1.0.1.0 0.0.0.0 14 187
r 160.394194541 _5_ AGT  --- 199 ack 40 [13a 3 7 800] ------- [0:0 4194305:0 27 4194305] [12 0] 3 0
s 160.394194541 _5_ AGT  --- 203 tcp 1040 [0 0 0 0] ------- [4194305:0 0:0 32 0] [25 0] 0 0
s 160.394194541 _5_ AGT  --- 204 tcp 1040 [0 0 0 0] ------- [4194305:0 0:0 32 0] [26 0] 0 0
r 160.395494 3 1 tcp 1060 ------- 2 1.0.1.0 0.0.0.0 14 187
+ 160.395494 1 0 tcp 1060 ------- 2 1.0.1.0 0.0.0.0 14 187
- 160.395494 1 0 tcp 1060 ------- 2 1.0.1.0 0.0.0.0 14 187
r 160.39919 1 0 tcp 1060 ------- 2 1.0.1.0 0.0.0.0 14 187
+ 160.39919 0 1 ack 40 ------- 2 0.0.0.0 1.0.1.0 14 205
- 160.39919 0 1 ack 40 ------- 2 0.0.0.0 1.0.1.0 14 205
r 160.401254 0 1 ack 40 ------- 2 0.0.0.0 1.0.1.0 14 205
+ 160.401254 1 4 ack 40 ------- 2 0.0.0.0 1.0.1.0 14 205
- 160.401254 1 4 ack 40 ------- 2 0.0.0.0 1.0.1.0 14 205
r 160.404318 1 4 ack 40 ------- 2 0.0.0.0 1.0.1.0 14 205
+ 160.424671 3 1 tcp 1060 ------- 2 1.0.1.0 0.0.0.0 15 188
- 160.424671 3 1 tcp 1060 ------- 2 1.0.1.0 0.0.0.0 15 188
r 160.428236 3 1 tcp 1060 ------- 2 1.0.1.0 0.0.0.0 15 188
+ 160.428236 1 0 tcp 1060 ------- 2 1.0.1.0 0.0.0.0 15 188
- 160.428236 1 0 tcp 1060 ------- 2 1.0.1.0 0.0.0.0 15 188
r 160.431932 1 0 tcp 1060 ------- 2 1.0.1.0 0.0.0.0 15 188
+ 160.431932 0 1 ack 40 ------- 2 0.0.0.0 1.0.1.0 15 206
- 160.431932 0 1 ack 40 ------- 2 0.0.0.0 1.0.1.0 15 206
r 160.433996 0 1 ack 40 ------- 2 0.0.0.0 1.0.1.0 15 206
+ 160.433996 1 4 ack 40 ------- 2 0.0.0.0 1.0.1.0 15 206
- 160.433996 1 4 ack 40 ------- 2 0.0.0.0 1.0.1.0 15 206
r 160.43706 1 4 ack 40 ------- 2 0.0.0.0 1.0.1.0 15 206
+ 160.440766 3 1 tcp 1060 ------- 2 1.0.1.0 0.0.0.0 16 189
- 160.440766 3 1 tcp 1060 ------- 2 1.0.1.0 0.0.0.0 16 189
r 160.442771865 _5_ AGT  --- 202 ack 40 [13a 3 7 800] ------- [0:0 4194305:0 27 4194305] [13 0] 3 0
s 160.442771865 _5_ AGT  --- 207 tcp 1040 [0 0 0 0] ------- [4194305:0 0:0 32 0] [27 0] 0 0
s 160.442771865 _5_ AGT  --- 208 tcp 1040 [0 0 0 0] ------- [4194305:0 0:0 32 0] [28 0] 0 0
r 160.444332 3 1 tcp 1060 ------- 2 1.0.1.0 0.0.0.0 16 189
+ 160.444332 1 0 tcp 1060 ------- 2 1.0.1.0 0.0.0.0 16 189
- 160.444332 1 0 tcp 1060 ------- 2 1.0.1.0 0.0.0.0 16 189
r 160.448028 1 0 tcp 1060 ------- 2 1.0.1.0 0.0.0.0 16 189
+ 160.448028 0 1 ack 40 ------- 2 0.0.0.0 1.0.1.0 16 209
- 160.448028 0 1 ack 40 ------- 2 0.0.0.0 1.0.1.0 16 209
r 160.450092 0 1 ack 40 ------- 2 0.0.0.0 1.0.1.0 16 209
+ 160.450092 1 4 ack 40 ------- 2 0.0.0.0 1.0.1.0 16 209
- 160.450092 1 4 ack 40 ------- 2 0.0.0.0 1.0.1.0 16 209
r 160.453156 1 4 ack 40 ------- 2 0.0.0.0 1.0.1.0 16 209
+ 160.46518 3 1 tcp 1060 ------- 2 1.0.1.0 0.0.0.0 17 191
- 160.46518 3 1 tcp 1060 ------- 2 1.0.1.0 0.0.0.0 17 191
r 160.467325965 _5_ AGT  --- 205 ack 40 [13a 3 7 800] ------- [0:0 4194305:0 27 4194305] [14 0] 3 0
s 160.467325965 _5_ AGT  --- 210 tcp 1040 [0 0 0 0] ------- [4194305:0 0:0 32 0] [29 0] 0 0
s 160.467325965 _5_ AGT  --- 211 tcp 1040 [0 0 0 0] ------- [4194305:0 0:0 32 0] [30 0] 0 0
r 160.468746 3 1 tcp 1060 ------- 2 1.0.1.0 0.0.0.0 17 191
+ 160.468746 1 0 tcp 1060 ------- 2 1.0.1.0 0.0.0.0 17 191
- 160.468746 1 0 tcp 1060 ------- 2 1.0.1.0 0.0.0.0 17 191
r 160.472442 1 0 tcp 1060 ------- 2 1.0.1.0 0.0.0.0 17 191
+ 160.472442 0 1 ack 40 ------- 2 0.0.0.0 1.0.1.0 17 212
- 160.472442 0 1 ack 40 ------- 2 0.0.0.0 1.0.1.0 17 212
r 160.474506 0 1 ack 40 ------- 2 0.0.0.0 1.0.1.0 17 212
+ 160.474506 1 4 ack 40 ------- 2 0.0.0.0 1.0.1.0 17 212
- 160.474506 1 4 ack 40 ------- 2 0.0.0.0 1.0.1.0 17 212
r 160.47757 1 4 ack 40 ------- 2 0.0.0.0 1.0.1.0 17 212
+ 160.487717 3 1 tcp 1060 ------- 2 1.0.1.0 0.0.0.0 18 192
- 160.487717 3 1 tcp 1060 ------- 2 1.0.1.0 0.0.0.0 18 192
r 160.491283 3 1 tcp 1060 ------- 2 1.0.1.0 0.0.0.0 18 192
+ 160.491283 1 0 tcp 1060 ------- 2 1.0.1.0 0.0.0.0 18 192
- 160.491283 1 0 tcp 1060 ------- 2 1.0.1.0 0.0.0.0 18 192
r 160.494979 1 0 tcp 1060 ------- 2 1.0.1.0 0.0.0.0 18 192
+ 160.494979 0 1 ack 40 ------- 2 0.0.0.0 1.0.1.0 18 213
- 160.494979 0 1 ack 40 ------- 2 0.0.0.0 1.0.1.0 18 213
r 160.497043 0 1 ack 40 ------- 2 0.0.0.0 1.0.1.0 18 213
+ 160.497043 1 4 ack 40 ------- 2 0.0.0.0 1.0.1.0 18 213
- 160.497043 1 4 ack 40 ------- 2 0.0.0.0 1.0.1.0 18 213
r 160.500107 1 4 ack 40 ------- 2 0.0.0.0 1.0.1.0 18 213
r 160.513824716 _5_ AGT  --- 206 ack 40 [13a 3 7 800] ------- [0:0 4194305:0 27 4194305] [15 0] 3 0
s 160.513824716 _5_ AGT  --- 214 tcp 1040 [0 0 0 0] ------- [4194305:0 0:0 32 0] [31 0] 0 0
s 160.513824716 _5_ AGT  --- 215 tcp 1040 [0 0 0 0] ------- [4194305:0 0:0 32 0] [32 0] 0 0
+ 160.523891 3 1 tcp 1060 ------- 2 1.0.1.0 0.0.0.0 19 194
- 160.523891 3 1 tcp 1060 ------- 2 1.0.1.0 0.0.0.0 19 194
r 160.527457 3 1 tcp 1060 ------- 2 1.0.1.0 0.0.0.0 19 194
+ 160.527457 1 0 tcp 1060 ------- 2 1.0.1.0 0.0.0.0 19 194
- 160.527457 1 0 tcp 1060 ------- 2 1.0.1.0 0.0.0.0 19 194
r 160.531153 1 0 tcp 1060 ------- 2 1.0.1.0 0.0.0.0 19 194
+ 160.531153 0 1 ack 40 ------- 2 0.0.0.0 1.0.1.0 19 216
- 160.531153 0 1 ack 40 ------- 2 0.0.0.0 1.0.1.0 19 216
r 160.533217 0 1 ack 40 ------- 2 0.0.0.0 1.0.1.0 19 216
+ 160.533217 1 4 ack 40 ------- 2 0.0.0.0 1.0.1.0 19 216
- 160.533217 1 4 ack 40 ------- 2 0.0.0.0 1.0.1.0 19 216
+ 160.534179 3 1 tcp 1060 ------- 2 1.0.1.0 0.0.0.0 20 195
- 160.534179 3 1 tcp 1060 ------- 2 1.0.1.0 0.0.0.0 20 195
r 160.536281 1 4 ack 40 ------- 2 0.0.0.0 1.0.1.0 19 216
r 160.537744 3 1 tcp 1060 ------- 2 1.0.1.0 0.0.0.0 20 195
+ 160.537744 1 0 tcp 1060 ------- 2 1.0.1.0 0.0.0.0 20 195
- 160.537744 1 0 tcp 1060 ------- 2 1.0.1.0 0.0.0.0 20 195
r 160.54144 1 0 tcp 1060 ------- 2 1.0.1.0 0.0.0.0 20 195
+ 160.54144 0 1 ack 40 ------- 2 0.0.0.0 1.0.1.0 20 217
- 160.54144 0 1 ack 40 ------- 2 0.0.0.0 1.0.1.0 20 217
r 160.542032440 _5_ AGT  --- 209 ack 40 [13a 3 7 800] ------- [0:0 4194305:0 27 4194305] [16 0] 3 0
s 160.542032440 _5_ AGT  --- 218 tcp 1040 [0 0 0 0] ------- [4194305:0 0:0 32 0] [33 0] 0 0
s 160.542032440 _5_ AGT  --- 219 tcp 1040 [0 0 0 0] ------- [4194305:0 0:0 32 0] [34 0] 0 0
r 160.543504 0 1 ack 40 ------- 2 0.0.0.0 1.0.1.0 20 217
+ 160.543504 1 4 ack 40 ------- 2 0.0.0.0 1.0.1.0 20 217
- 160.543504 1 4 ack 40 ------- 2 0.0.0.0 1.0.1.0 20 217
r 160.546568 1 4 ack 40 ------- 2 0.0.0.0 1.0.1.0 20 217
+ 160.584521 3 1 tcp 1060 ------- 2 1.0.1.0 0.0.0.0 21 197
- 160.584521 3 1 tcp 1060 ------- 2 1.0.1.0 0.0.0.0 21 197
r 160.588086 3 1 tcp 1060 ------- 2 1.0.1.0 0.0.0.0 21 197
+ 160.588086 1 0 tcp 1060 ------- 2 1.0.1.0 0.0.0.0 21 197
- 160.588086 1 0 tcp 1060 ------- 2 1.0.1.0 0.0.0.0 21 197
r 160.591782 1 0 tcp 1060 ------- 2 1.0.1.0 0.0.0.0 21 197
+ 160.591782 0 1 ack 40 ------- 2 0.0.0.0 1.0.1.0 21 220
- 160.591782 0 1 ack 40 ------- 2 0.0.0.0 1.0.1.0 21 220
r 160.593846 0 1 ack 40 ------- 2 0.0.0.0 1.0.1.0 21 220
+ 160.593846 1 4 ack 40 ------- 2 0.0.0.0 1.0.1.0 21 220
- 160.593846 1 4 ack 40 ------- 2 0.0.0.0 1.0.1.0 21 220
r 160.59691 1 4 ack 40 ------- 2 0.0.0.0 1.0.1.0 21 220
r 160.600583324 _5_ AGT  --- 212 ack 40 [13a 3 7 800] ------- [0:0 4194305:0 27 4194305] [17 0] 3 0
s 160.600583324 _5_ AGT  --- 221 tcp 1040 [0 0 0 0] ------- [4194305:0 0:0 32 0] [35 0] 0 0
s 160.600583324 _5_ AGT  --- 222 tcp 1040 [0 0 0 0] ------- [4194305:0 0:0 32 0] [36 0] 0 0
+ 160.61065 3 1 tcp 1060 ------- 2 1.0.1.0 0.0.0.0 22 198
- 160.61065 3 1 tcp 1060 ------- 2 1.0.1.0 0.0.0.0 22 198
r 160.614215 3 1 tcp 1060 ------- 2 1.0.1.0 0.0.0.0 22 198
+ 160.614215 1 0 tcp 1060 ------- 2 1.0.1.0 0.0.0.0 22 198
- 160.614215 1 0 tcp 1060 ------- 2 1.0.1.0 0.0.0.0 22 198
r 160.617911 1 0 tcp 1060 ------- 2 1.0.1.0 0.0.0.0 22 198
+ 160.617911 0 1 ack 40 ------- 2 0.0.0.0 1.0.1.0 22 223
- 160.617911 0 1 ack 40 ------- 2 0.0.0.0 1.0.1.0 22 223
r 160.619975 0 1 ack 40 ------- 2 0.0.0.0 1.0.1.0 22 223
+ 160.619975 1 4 ack 40 ------- 2 0.0.0.0 1.0.1.0 22 223
- 160.619975 1 4 ack 40 ------- 2 0.0.0.0 1.0.1.0 22 223
+ 160.621017 3 1 tcp 1060 ------- 2 1.0.1.0 0.0.0.0 23 200
- 160.621017 3 1 tcp 1060 ------- 2 1.0.1.0 0.0.0.0 23 200
r 160.623039 1 4 ack 40 ------- 2 0.0.0.0 1.0.1.0 22 223
r 160.624583 3 1 tcp 1060 ------- 2 1.0.1.0 0.0.0.0 23 200
+ 160.624583 1 0 tcp 1060 ------- 2 1.0.1.0 0.0.0.0 23 200
- 160.624583 1 0 tcp 1060 ------- 2 1.0.1.0 0.0.0.0 23 200
r 160.625069151 _5_ AGT  --- 213 ack 40 [13a 3 7 800] ------- [0:0 4194305:0 27 4194305] [18 0] 3 0
s 160.625069151 _5_ AGT  --- 224 tcp 1040 [0 0 0 0] ------- [4194305:0 0:0 32 0] [37 0] 0 0
s 160.625069151 _5_ AGT  --- 225 tcp 1040 [0 0 0 0] ------- [4194305:0 0:0 32 0] [38 0] 0 0
r 160.628279 1 0 tcp 1060 ------- 2 1.0.1.0 0.0.0.0 23 200
+ 160.628279 0 1 ack 40 ------- 2 0.0.0.0 1.0.1.0 23 226
- 160.628279 0 1 ack 40 ------- 2 0.0.0.0 1.0.1.0 23 226
r 160.630343 0 1 ack 40 ------- 2 0.0.0.0 1.0.1.0 23 226
+ 160.630343 1 4 ack 40 ------- 2 0.0.0.0 1.0.1.0 23 226
- 160.630343 1 4 ack 40 ------- 2 0.0.0.0 1.0.1.0 23 226
r 160.633407 1 4 ack 40 ------- 2 0.0.0.0 1.0.1.0 23 226
+ 160.6453 3 1 tcp 1060 ------- 2 1.0.1.0 0.0.0.0 24 201
- 160.6453 3 1 tcp 1060 ------- 2 1.0.1.0 0.0.0.0 24 201
r 160.648866 3 1 tcp 1060 ------- 2 1.0.1.0 0.0.0.0 24 201
+ 160.648866 1 0 tcp 1060 ------- 2 1.0.1.0 0.0.0.0 24 201
- 160.648866 1 0 tcp 1060 ------- 2 1.0.1.0 0.0.0.0 24 201
r 160.652562 1 0 tcp 1060 ------- 2 1.0.1.0 0.0.0.0 24 201
+ 160.652562 0 1 ack 40 ------- 2 0.0.0.0 1.0.1.0 24 227
- 160.652562 0 1 ack 40 ------- 2 0.0.0.0 1.0.1.0 24 227
r 160.654626 0 1 ack 40 ------- 2 0.0.0.0 1.0.1.0 24 227
+ 160.654626 1 4 ack 40 ------- 2 0.0.0.0 1.0.1.0 24 227
- 160.654626 1 4 ack 40 ------- 2 0.0.0.0 1.0.1.0 24 227
+ 160.657653 3 1 tcp 1060 ------- 2 1.0.1.0 0.0.0.0 25 203
- 160.657653 3 1 tcp 1060 ------- 2 1.0.1.0 0.0.0.0 25 203
r 160.65769 1 4 ack 40 ------- 2 0.0.0.0 1.0.1.0 24 227
r 160.661219 3 1 tcp 1060 ------- 2 1.0.1.0 0.0.0.0 25 203
+ 160.661219 1 0 tcp 1060 ------- 2 1.0.1.0 0.0.0.0 25 203
- 160.661219 1 0 tcp 1060 ------- 2 1.0.1.0 0.0.0.0 25 203
r 160.663360857 _5_ AGT  --- 216 ack 40 [13a 3 7 800] ------- [0:0 4194305:0 27 4194305] [19 0] 3 0
s 160.663360857 _5_ AGT  --- 228 tcp 1040 [0 0 0 0] ------- [4194305:0 0:0 32 0] [39 0] 0 0
r 160.664915 1 0 tcp 1060 ------- 2 1.0.1.0 0.0.0.0 25 203
+ 160.664915 0 1 ack 40 ------- 2 0.0.0.0 1.0.1.0 25 229
- 160.664915 0 1 ack 40 ------- 2 0.0.0.0 1.0.1.0 25 229
r 160.666979 0 1 ack 40 ------- 2 0.0.0.0 1.0.1.0 25 229
+ 160.666979 1 4 ack 40 ------- 2 0.0.0.0 1.0.1.0 25 229
- 160.666979 1 4 ack 40 ------- 2 0.0.0.0 1.0.1.0 25 229
r 160.670043 1 4 ack 40 ------- 2 0.0.0.0 1.0.1.0 25 229
r 160.675590457 _5_ AGT  --- 217 ack 40 [13a 3 7 800] ------- [0:0 4194305:0 27 4194305] [20 0] 3 0
s 160.675590457 _5_ AGT  --- 230 tcp 1040 [0 0 0 0] ------- [4194305:0 0:0 32 0] [40 0] 0 0
+ 160.717698 3 1 tcp 1060 ------- 2 1.0.1.0 0.0.0.0 26 204
- 160.717698 3 1 tcp 1060 ------- 2 1.0.1.0 0.0.0.0 26 204
r 160.721264 3 1 tcp 1060 ------- 2 1.0.1.0 0.0.0.0 26 204
+ 160.721264 1 0 tcp 1060 ------- 2 1.0.1.0 0.0.0.0 26 204
- 160.721264 1 0 tcp 1060 ------- 2 1.0.1.0 0.0.0.0 26 204
r 160.72496 1 0 tcp 1060 ------- 2 1.0.1.0 0.0.0.0 26 204
+ 160.72496 0 1 ack 40 ------- 2 0.0.0.0 1.0.1.0 26 231
- 160.72496 0 1 ack 40 ------- 2 0.0.0.0 1.0.1.0 26 231
r 160.727024 0 1 ack 40 ------- 2 0.0.0.0 1.0.1.0 26 231
+ 160.727024 1 4 ack 40 ------- 2 0.0.0.0 1.0.1.0 26 231
- 160.727024 1 4 ack 40 ------- 2 0.0.0.0 1.0.1.0 26 231
r 160.730088 1 4 ack 40 ------- 2 0.0.0.0 1.0.1.0 26 231
+ 160.731768 3 1 tcp 1060 ------- 2 1.0.1.0 0.0.0.0 27 207
- 160.731768 3 1 tcp 1060 ------- 2 1.0.1.0 0.0.0.0 27 207
r 160.735333 3 1 tcp 1060 ------- 2 1.0.1.0 0.0.0.0 27 207
+ 160.735333 1 0 tcp 1060 ------- 2 1.0.1.0 0.0.0.0 27 207
- 160.735333 1 0 tcp 1060 ------- 2 1.0.1.0 0.0.0.0 27 207
r 160.739029 1 0 tcp 1060 ------- 2 1.0.1.0 0.0.0.0 27 207
+ 160.739029 0 1 ack 40 ------- 2 0.0.0.0 1.0.1.0 27 232
- 160.739029 0 1 ack 40 ------- 2 0.0.0.0 1.0.1.0 27 232
r 160.741093 0 1 ack 40 ------- 2 0.0.0.0 1.0.1.0 27 232
+ 160.741093 1 4 ack 40 ------- 2 0.0.0.0 1.0.1.0 27 232
- 160.741093 1 4 ack 40 ------- 2 0.0.0.0 1.0.1.0 27 232
+ 160.741955 3 1 tcp 1060 ------- 2 1.0.1.0 0.0.0.0 28 208
- 160.741955 3 1 tcp 1060 ------- 2 1.0.1.0 0.0.0.0 28 208
r 160.744157 1 4 ack 40 ------- 2 0.0.0.0 1.0.1.0 27 232
r 160.74552 3 1 tcp 1060 ------- 2 1.0.1.0 0.0.0.0 28 208
+ 160.74552 1 0 tcp 1060 ------- 2 1.0.1.0 0.0.0.0 28 208
- 160.74552 1 0 tcp 1060 ------- 2 1.0.1.0 0.0.0.0 28 208
r 160.749216 1 0 tcp 1060 ------- 2 1.0.1.0 0.0.0.0 28 208
+ 160.749216 0 1 ack 40 ------- 2 0.0.0.0 1.0.1.0 28 233
- 160.749216 0 1 ack 40 ------- 2 0.0.0.0 1.0.1.0 28 233
r 160.75128 0 1 ack 40 ------- 2 0.0.0.0 1.0.1.0 28 233
+ 160.75128 1 4 ack 40 ------- 2 0.0.0.0 1.0.1.0 28 233
- 160.75128 1 4 ack 40 ------- 2 0.0.0.0 1.0.1.0 28 233
r 160.754344 1 4 ack 40 ------- 2 0.0.0.0 1.0.1.0 28 233
+ 160.766179 3 1 tcp 1060 ------- 2 1.0.1.0 0.0.0.0 29 210
- 160.766179 3 1 tcp 1060 ------- 2 1.0.1.0 0.0.0.0 29 210
r 160.768064570 _5_ AGT  --- 220 ack 40 [13a 3 7 800] ------- [0:0 4194305:0 27 4194305] [21 0] 3 0
s 160.768064570 _5_ AGT  --- 234 tcp 1040 [0 0 0 0] ------- [4194305:0 0:0 32 0] [41 0] 0 0
r 160.769744 3 1 tcp 1060 ------- 2 1.0.1.0 0.0.0.0 29 210
+ 160.769744 1 0 tcp 1060 ------- 2 1.0.1.0 0.0.0.0 29 210
- 160.769744 1 0 tcp 1060 ------- 2 1.0.1.0 0.0.0.0 29 210
r 160.77344 1 0 tcp 1060 ------- 2 1.0.1.0 0.0.0.0 29 210
+ 160.77344 0 1 ack 40 ------- 2 0.0.0.0 1.0.1.0 29 235
- 160.77344 0 1 ack 40 ------- 2 0.0.0.0 1.0.1.0 29 235
r 160.775504 0 1 ack 40 ------- 2 0.0.0.0 1.0.1.0 29 235
+ 160.775504 1 4 ack 40 ------- 2 0.0.0.0 1.0.1.0 29 235
- 160.775504 1 4 ack 40 ------- 2 0.0.0.0 1.0.1.0 29 235
r 160.778568 1 4 ack 40 ------- 2 0.0.0.0 1.0.1.0 29 235
r 160.780414170 _5_ AGT  --- 223 ack 40 [13a 3 7 800] ------- [0:0 4194305:0 27 4194305] [22 0] 3 0
s 160.780414170 _5_ AGT  --- 236 tcp 1040 [0 0 0 0] ------- [4194305:0 0:0 32 0] [42 0] 0 0
+ 160.820856 3 1 tcp 1060 ------- 2 1.0.1.0 0.0.0.0 30 211
- 160.820856 3 1 tcp 1060 ------- 2 1.0.1.0 0.0.0.0 30 211
r 160.824421 3 1 tcp 1060 ------- 2 1.0.1.0 0.0.0.0 30 211
+ 160.824421 1 0 tcp 1060 ------- 2 1.0.1.0 0.0.0.0 30 211
- 160.824421 1 0 tcp 1060 ------- 2 1.0.1.0 0.0.0.0 30 211
r 160.828117 1 0 tcp 1060 ------- 2 1.0.1.0 0.0.0.0 30 211
+ 160.828117 0 1 ack 40 ------- 2 0.0.0.0 1.0.1.0 30 237
- 160.828117 0 1 ack 40 ------- 2 0.0.0.0 1.0.1.0 30 237
r 160.830181 0 1 ack 40 ------- 2 0.0.0.0 1.0.1.0 30 237
+ 160.830181 1 4 ack 40 ------- 2 0.0.0.0 1.0.1.0 30 237
- 160.830181 1 4 ack 40 ------- 2 0.0.0.0 1.0.1.0 30 237
+ 160.831163 3 1 tcp 1060 ------- 2 1.0.1.0 0.0.0.0 31 214
- 160.831163 3 1 tcp 1060 ------- 2 1.0.1.0 0.0.0.0 31 214
r 160.833245 1 4 ack 40 ------- 2 0.0.0.0 1.0.1.0 30 237
r 160.834728 3 1 tcp 1060 ------- 2 1.0.1.0 0.0.0.0 31 214
+ 160.834728 1 0 tcp 1060 ------- 2 1.0.1.0 0.0.0.0 31 214
- 160.834728 1 0 tcp 1060 ------- 2 1.0.1.0 0.0.0.0 31 214
r 160.838424 1 0 tcp 1060 ------- 2 1.0.1.0 0.0.0.0 31 214
+ 160.838424 0 1 ack 40 ------- 2 0.0.0.0 1.0.1.0 31 238
- 160.838424 0 1 ack 40 ------- 2 0.0.0.0 1.0.1.0 31 238
r 160.840488 0 1 ack 40 ------- 2 0.0.0.0 1.0.1.0 31 238
+ 160.840488 1 4 ack 40 ------- 2 0.0.0.0 1.0.1.0 31 238
- 160.840488 1 4 ack 40 ------- 2 0.0.0.0 1.0.1.0 31 238
+ 160.84121 3 1 tcp 1060 ------- 2 1.0.1.0 0.0.0.0 32 215
- 160.84121 3 1 tcp 1060 ------- 2 1.0.1.0 0.0.0.0 32 215
r 160.843552 1 4 ack 40 ------- 2 0.0.0.0 1.0.1.0 31 238
r 160.844776 3 1 tcp 1060 ------- 2 1.0.1.0 0.0.0.0 32 215
+ 160.844776 1 0 tcp 1060 ------- 2 1.0.1.0 0.0.0.0 32 215
- 160.844776 1 0 tcp 1060 ------- 2 1.0.1.0 0.0.0.0 32 215
r 160.848472 1 0 tcp 1060 ------- 2 1.0.1.0 0.0.0.0 32 215
+ 160.848472 0 1 ack 40 ------- 2 0.0.0.0 1.0.1.0 32 239
- 160.848472 0 1 ack 40 ------- 2 0.0.0.0 1.0.1.0 32 239
r 160.850536 0 1 ack 40 ------- 2 0.0.0.0 1.0.1.0 32 239
+ 160.850536 1 4 ack 40 ------- 2 0.0.0.0 1.0.1.0 32 239
- 160.850536 1 4 ack 40 ------- 2 0.0.0.0 1.0.1.0 32 239
r 160.8536 1 4 ack 40 ------- 2 0.0.0.0 1.0.1.0 32 239
+ 160.859172 3 1 tcp 1060 ------- 2 1.0.1.0 0.0.0.0 33 218
- 160.859172 3 1 tcp 1060 ------- 2 1.0.1.0 0.0.0.0 33 218
r 160.862737 3 1 tcp 1060 ------- 2 1.0.1.0 0.0.0.0 33 218
+ 160.862737 1 0 tcp 1060 ------- 2 1.0.1.0 0.0.0.0 33 218
- 160.862737 1 0 tcp 1060 ------- 2 1.0.1.0 0.0.0.0 33 218
r 160.866433 1 0 tcp 1060 ------- 2 1.0.1.0 0.0.0.0 33 218
+ 160.866433 0 1 ack 40 ------- 2 0.0.0.0 1.0.1.0 33 240
- 160.866433 0 1 ack 40 ------- 2 0.0.0.0 1.0.1.0 33 240
r 160.868497 0 1 ack 40 ------- 2 0.0.0.0 1.0.1.0 33 240
+ 160.868497 1 4 ack 40 ------- 2 0.0.0.0 1.0.1.0 33 240